Nickle Copper Simulation

63 	atoms
0 	bonds
0 	angles
0 	dihedrals
0 	impropers

2	atom types
0	bond types
0	angle types
0	dihedral types
0	improper types

-0.02	6.02	xlo xhi
-0.02	6.02	ylo yhi
-0.02	6.02	zlo zhi

Atoms

	1	1	-0.0022	-0.0064	-0.0015
	2	2	0.0082	-0.0079	3.0089
	3	2	-0.0013	-0.0011	6.0005
	4	2	0.0089	3.006	0.0055
	5	1	0.0093	2.9907	2.9912
	6	1	-0.0011	3.0059	6.0085
	7	2	-0.0028	6.0078	0.001
	8	2	-0.0097	6.0097	3.0064
	9	1	0.0057	5.9903	5.9982
	10	2	2.9938	-0.0011	0.0024
	11	2	3.0038	0.0088	3.0016
	12	2	2.9907	-0.0045	5.9907
	13	1	3.0025	2.9957	0.0006
	14	2	2.9965	2.9942	3.006
	15	2	3.0021	2.9918	5.9906
	16	1	3.0077	6.0092	0.0021
	17	2	2.9966	6.0084	2.9937
	18	2	2.9983	5.997	6.0051
	19	2	6.0013	-0.0023	0.0091
	20	2	6.0041	0.0083	2.9913
	21	2	5.9999	0.0073	6.0
	22	2	5.9906	3.0004	-0.0027
	23	1	5.9955	3.0071	2.9923
	24	2	6.0077	3.0062	5.9995
	25	2	6.0057	5.9954	0.0067
	26	2	5.9917	6.0056	2.9904
	27	2	6.0044	5.9906	6.0065
	28	2	1.4974	1.5065	-0.0086
	29	1	1.4957	1.5045	2.9927
	30	2	1.498	1.5001	6.0056
	31	1	1.5003	4.4949	-0.0002
	32	2	1.4925	4.4932	3.0028
	33	2	1.4984	4.4912	6.0034
	34	2	4.5077	1.497	0.0049
	35	2	4.4926	1.5047	3.0008
	36	1	4.5006	1.4977	6.0073
	37	1	4.5083	4.5082	-0.0074
	38	2	4.5093	4.4928	3.0082
	39	2	4.5018	4.4986	5.9962
	40	1	1.502	0.003	1.4997
	41	2	1.5092	-0.006	4.5059
	42	2	1.4977	3.0092	1.4997
	43	2	1.5023	2.9971	4.5043
	44	2	1.4948	5.9917	1.4991
	45	2	1.4907	6.0052	4.5048
	46	2	4.5002	-0.0069	1.4935
	47	2	4.5038	0.0097	4.5062
	48	2	4.5051	3.0021	1.4953
	49	1	4.4907	3.004	4.4966
	50	2	4.5017	5.9998	1.5089
	51	2	4.4932	5.995	4.5098
	52	1	0.0008	1.4968	1.4903
	53	1	-0.0098	1.4963	4.4954
	54	2	-0.0077	4.5089	1.4988
	55	2	-0.0086	4.5032	4.4911
	56	2	2.9963	1.5077	1.5037
	57	2	3.0004	1.5077	4.5003
	58	1	2.9995	4.4999	1.5055
	59	2	3.0009	4.5039	4.5056
	60	1	5.9903	1.4936	1.4989
	61	2	5.9958	1.4901	4.4955
	62	2	6.0059	4.4978	1.4916
	63	2	6.0017	4.501	4.4933

Velocities

	1	0.0	0.0	0.0
	2	0.0	0.0	0.0
	3	0.0	0.0	0.0
	4	0.0	0.0	0.0
	5	0.0	0.0	0.0
	6	0.0	0.0	0.0
	7	0.0	0.0	0.0
	8	0.0	0.0	0.0
	9	0.0	0.0	0.0
	10	0.0	0.0	0.0
	11	0.0	0.0	0.0
	12	0.0	0.0	0.0
	13	0.0	0.0	0.0
	14	0.0	0.0	0.0
	15	0.0	0.0	0.0
	16	0.0	0.0	0.0
	17	0.0	0.0	0.0
	18	0.0	0.0	0.0
	19	0.0	0.0	0.0
	20	0.0	0.0	0.0
	21	0.0	0.0	0.0
	22	0.0	0.0	0.0
	23	0.0	0.0	0.0
	24	0.0	0.0	0.0
	25	0.0	0.0	0.0
	26	0.0	0.0	0.0
	27	0.0	0.0	0.0
	28	0.0	0.0	0.0
	29	0.0	0.0	0.0
	30	0.0	0.0	0.0
	31	0.0	0.0	0.0
	32	0.0	0.0	0.0
	33	0.0	0.0	0.0
	34	0.0	0.0	0.0
	35	0.0	0.0	0.0
	36	0.0	0.0	0.0
	37	0.0	0.0	0.0
	38	0.0	0.0	0.0
	39	0.0	0.0	0.0
	40	0.0	0.0	0.0
	41	0.0	0.0	0.0
	42	0.0	0.0	0.0
	43	0.0	0.0	0.0
	44	0.0	0.0	0.0
	45	0.0	0.0	0.0
	46	0.0	0.0	0.0
	47	0.0	0.0	0.0
	48	0.0	0.0	0.0
	49	0.0	0.0	0.0
	50	0.0	0.0	0.0
	51	0.0	0.0	0.0
	52	0.0	0.0	0.0
	53	0.0	0.0	0.0
	54	0.0	0.0	0.0
	55	0.0	0.0	0.0
	56	0.0	0.0	0.0
	57	0.0	0.0	0.0
	58	0.0	0.0	0.0
	59	0.0	0.0	0.0
	60	0.0	0.0	0.0
	61	0.0	0.0	0.0
	62	0.0	0.0	0.0
	63	0.0	0.0	0.0

