ITEM: TIMESTEP
150000
ITEM: NUMBER OF ATOMS
63
ITEM: BOX BOUNDS pp pp pp
-2.0000000000000000e-02 6.0199999999999996e+00
-2.0000000000000000e-02 6.0199999999999996e+00
-2.0000000000000000e-02 6.0199999999999996e+00
ITEM: ATOMS id type x y z vx vy vz 
1 1 3.92987 4.29587 4.57663 5.06879 -9.19273 48.9287 
2 2 3.3477 0.480378 0.777208 -11.749 -42.3607 3.21496 
3 2 5.76762 5.88618 3.80855 -45.5394 -47.6127 22.7336 
4 2 1.30839 5.384 4.00861 31.6324 25.9665 30.4761 
5 1 2.47938 1.13024 2.77639 14.1555 -54.3691 -68.6376 
6 1 4.96036 2.39344 5.46463 39.0531 39.4838 -50.3038 
7 2 4.78631 1.23359 0.198696 60.464 117.3 77.2735 
8 2 1.74765 3.97808 4.09194 44.0179 15.646 -46.0931 
9 1 3.32431 5.67928 4.97318 -53.2609 26.2497 11.3924 
10 2 1.34323 2.35 2.44366 -71.5567 -16.5343 -26.6137 
11 2 2.60984 1.84585 0.496057 -34.5713 60.8115 -56.4481 
12 2 0.54309 1.17185 3.80092 0.176315 30.6459 -1.37341 
13 1 0.801194 1.02326 2.38026 -38.0716 -43.663 -66.9824 
14 2 0.730129 3.07258 3.47316 -16.6579 132.559 -14.38 
15 2 2.52738 3.91117 2.92913 90.2185 48.3299 143.228 
16 1 3.88061 0.85958 3.31439 5.44693 -67.6631 47.8529 
17 2 5.24343 0.84011 4.54009 41.0168 -8.80815 25.5295 
18 2 0.59615 4.78553 5.19762 32.2105 -38.105 -15.0673 
19 2 2.48999 1.40617 4.10371 -7.58996 -33.343 6.90607 
20 2 5.91833 4.92352 2.19547 33.508 -32.2615 -13.3815 
21 2 0.36693 0.347316 4.39574 30.3656 -20.6794 21.8554 
22 2 2.60609 5.10074 2.53975 -28.2921 -80.9061 -30.7269 
23 1 4.12482 3.72898 2.18595 36.9507 116.372 -33.0122 
24 2 0.463155 1.22959 5.96896 18.9286 43.1496 -47.6445 
25 2 0.305073 0.324907 0.80058 -19.7585 80.7373 68.3441 
26 2 5.24007 5.02334 3.22372 -57.0213 -4.30926 17.548 
27 2 3.57746 3.05441 4.29298 -51.8121 -43.0392 -13.9704 
28 2 1.67157 2.83617 5.70643 -78.0855 -110.668 -29.1983 
29 1 0.846234 3.06864 1.66719 -37.7089 4.46509 -15.283 
30 2 4.17963 2.32939 2.47145 -14.2338 33.2245 50.0366 
31 1 4.13022 5.7894 1.74535 -45.3159 83.9867 -145.64 
32 2 1.03244 5.59969 0.44019 17.7382 26.1331 90.8611 
33 2 1.91994 0.0325633 4.83263 85.5709 -103.79 73.6105 
34 2 0.715996 1.61998 0.686284 5.45776 2.78202 51.2047 
35 2 2.6194 0.483911 0.478512 -25.308 42.2466 19.6144 
36 1 3.05097 1.65507 2.99866 0.971089 114.799 2.7449 
37 1 5.93392 2.03558 3.98832 0.385386 -21.8729 -12.4539 
38 2 0.207204 3.75365 3.25445 -24.8819 -7.31109 -69.9346 
39 2 1.08594 2.18581 4.63336 -80.3546 -99.5404 -26.6575 
40 1 2.92827 3.77308 5.94254 45.8866 25.2996 -18.0886 
41 2 5.22027 4.96963 4.88045 91.2682 -40.7218 3.32852 
42 2 5.49515 0.864277 1.64202 -44.6435 56.7837 50.6402 
43 2 5.16209 5.76528 0.473067 3.55192 18.1598 31.0447 
44 2 2.11716 5.75548 3.19837 44.2484 -45.3968 12.5878 
45 2 1.05098 4.79218 1.34566 98.123 39.034 85.9943 
46 2 5.25395 1.61772 2.11967 -2.90577 -87.6332 13.8072 
47 2 2.29936 5.21169 5.52974 -124.394 -19.6739 -14.2693 
48 2 0.414335 3.98975 4.60547 12.3924 59.8498 -22.1178 
49 1 4.61394 2.81917 0.849888 -56.6738 10.0375 -21.8778 
50 2 5.77889 4.16267 0.155476 -18.5858 84.8349 -77.2554 
51 2 3.25448 2.69699 1.41265 54.6499 102.629 -34.4053 
52 1 3.62437 4.54658 1.78158 -12.0414 -19.0294 -53.882 
53 1 2.45805 4.15847 4.47994 -9.46159 -41.7998 -35.9149 
54 2 2.41676 1.41787 5.52168 29.0926 8.14049 17.0957 
55 2 1.70332 3.08619 4.42301 23.4986 -145.917 67.3099 
56 2 5.06162 3.54113 3.40464 58.2959 -13.6774 51.6779 
57 2 1.34557 3.02912 0.745968 110.332 -58.8795 -81.5504 
58 1 5.6714 2.09401 0.6112 -45.701 -3.72141 31.6307 
59 2 3.14928 1.95523 5.51606 -51.2813 -12.3477 0.0190294 
60 1 2.02653 5.25082 1.41615 13.2705 -56.595 -25.446 
61 2 4.72867 2.98491 3.55499 62.4618 -73.041 -59.1663 
62 2 3.68903 5.35949 0.349459 -84.1138 1.83896 12.3211 
63 2 0.0490779 5.3267 1.52028 -53.1822 83.2234 54.8864 
ITEM: TIMESTEP
160000
ITEM: NUMBER OF ATOMS
63
ITEM: BOX BOUNDS pp pp pp
-1.9085599414050787e+00 7.9085599414050876e+00
-1.9085599414050787e+00 7.9085599414050876e+00
-1.9085599414050787e+00 7.9085599414050876e+00
ITEM: ATOMS id type x y z vx vy vz 
25 2 -1.52314 -0.711816 -0.496966 -2.2264 0.663258 4.67985 
34 2 -0.0367267 1.23536 -0.129524 4.34256 3.45871 -0.73083 
35 2 1.09585 -0.695204 -0.735227 -2.17665 1.44675 3.63007 
2 2 3.53987 -0.836257 -0.991702 2.92583 1.44266 -1.57267 
11 2 2.49746 1.2584 -0.938303 0.891384 2.11787 5.25814 
7 2 5.72867 0.509487 -1.34327 -3.38412 -0.351439 -8.49332 
42 2 6.35702 -0.208869 0.575099 -3.93381 4.11044 -3.30087 
29 1 -0.848069 3.56584 0.617146 6.42443 5.06199 -1.98777 
57 2 1.03149 3.52978 -1.04025 1.87952 6.37437 3.34939 
51 2 3.29073 3.31183 0.331507 -6.06959 -3.65131 1.31712 
40 1 3.42598 4.30442 -1.7953 2.55707 -4.08406 3.98151 
49 1 5.43004 2.9052 -1.00396 -0.705654 2.62074 -2.97937 
58 1 7.43582 2.05449 -0.296973 -1.53721 -2.87604 -0.859613 
32 2 -0.212802 7.31131 -0.549805 -7.79311 -7.00285 -1.12261 
45 2 0.235342 5.88399 1.35909 -0.469421 -0.947631 2.03857 
52 1 3.99887 5.58797 0.311182 2.52373 3.13514 -2.11605 
60 1 1.90746 6.66089 0.0168193 5.33608 5.21977 3.92721 
62 2 3.61107 6.72454 -1.80933 2.91583 -0.0593846 -2.75374 
31 1 4.88427 7.60011 0.668384 -3.74786 -4.47024 3.27159 
43 2 6.59495 7.6186 -1.30825 -1.27452 1.19115 -5.70988 
63 2 7.51427 7.76673 0.920946 -3.85137 -0.728112 2.27715 
50 2 7.21861 5.39736 -1.61293 -2.26583 -4.34029 5.31651 
12 2 -0.717977 -0.261913 3.67436 -0.479879 -2.97489 4.02533 
13 1 -0.597852 -0.735983 1.52506 5.68656 -2.12895 -6.43332 
5 1 1.9632 -0.852094 1.68806 -0.875709 0.13849 -2.04054 
16 1 4.65384 -1.31034 4.03457 1.22636 -0.896424 -1.16391 
46 2 6.57627 0.564435 2.52829 2.90036 1.02757 8.97189 
10 2 -0.238941 1.6091 2.12647 0.459212 -2.49809 0.171913 
14 2 -0.405487 2.97798 3.69152 4.17051 -5.47451 2.39881 
36 1 2.54964 2.14623 2.98405 -6.32988 -0.287834 -3.58617 
38 2 7.51149 3.7359 2.45977 -5.65013 -8.83162 1.7646 
30 2 4.74784 2.37895 1.71589 1.57872 0.246112 -5.57005 
56 2 6.51193 4.17608 4.58827 -3.45227 0.900326 3.85553 
61 2 5.63698 2.40592 3.88534 -9.97863 0.856529 0.81372 
8 2 1.13414 5.05654 3.92591 1.57627 -4.72374 -2.98996 
20 2 7.8915 5.67165 1.65989 -4.3634 -4.6383 2.03373 
15 2 3.54016 4.74857 3.72664 7.33759 -0.395134 -0.572743 
22 2 2.30137 5.45094 2.00107 4.52587 -3.16281 -1.58645 
44 2 2.19926 7.35362 3.5187 4.7376 2.26462 0.640508 
3 2 7.28707 7.69958 4.24823 2.4378 5.57642 -6.75118 
23 1 5.61552 4.77529 1.52348 1.24811 -4.79005 -2.70455 
26 2 5.74425 6.1068 3.44754 -3.43228 2.67863 2.05474 
21 2 -0.886392 -1.47328 5.8991 0.573275 -0.509524 1.33008 
24 2 -1.33875 -0.00290517 7.38634 -2.80471 4.24958 -5.38359 
39 2 -0.246464 0.800453 5.56021 7.50423 -2.23152 0.939705 
19 2 2.16444 -0.168806 4.61628 2.56723 -4.43693 -6.65961 
54 2 1.61071 0.108173 6.93614 -0.724135 4.74131 1.08612 
17 2 6.78498 -0.448652 5.87281 -5.05106 2.063 1.11834 
28 2 0.0315881 1.97066 7.50939 -0.992833 2.88025 2.47278 
55 2 1.50972 2.09354 5.49059 1.85967 6.57526 -1.76415 
27 2 3.65468 2.80944 5.01271 5.5596 4.33794 -1.18282 
59 2 3.65628 1.64052 6.93856 4.35068 -1.90228 3.75385 
37 1 7.5887 1.5294 4.6206 -0.178328 1.24828 -3.18321 
6 1 6.47023 2.47765 6.42928 -2.66073 0.906656 3.13888 
4 2 0.23591 6.84657 4.76524 -4.09591 0.0572406 -3.14264 
18 2 -0.755128 6.13557 6.8346 1.82033 4.06798 5.24136 
47 2 1.31842 5.75486 7.84316 1.60908 -5.00306 -0.221941 
48 2 -1.03544 4.70577 5.02705 3.12311 -0.850642 -1.12933 
9 1 4.05944 7.70539 6.0673 4.11171 2.17583 -3.42635 
33 2 1.51418 7.73287 6.48165 0.950618 -2.30896 1.60506 
53 1 2.32946 4.71977 5.94547 -4.67197 0.828414 0.197671 
1 1 4.80169 5.11365 5.99351 -1.56591 -0.408258 0.682873 
41 2 6.79742 6.0602 5.86139 -4.40003 2.57153 2.96332 
ITEM: TIMESTEP
170000
ITEM: NUMBER OF ATOMS
63
ITEM: BOX BOUNDS pp pp pp
-1.7069063179281461e+00 7.7069063179281549e+00
-1.7069063179281461e+00 7.7069063179281549e+00
-1.7069063179281461e+00 7.7069063179281549e+00
ITEM: ATOMS id type x y z vx vy vz 
25 2 -1.48179 -0.379924 -0.282487 -1.18399 0.267646 0.234289 
34 2 0.252178 1.47203 -0.0842758 -0.00137238 -0.552495 -1.8299 
35 2 1.0621 -0.70372 -0.677758 -2.70523 -1.24617 -3.51588 
11 2 2.58439 1.40564 -0.437946 2.44614 -0.917356 2.36122 
13 1 -0.0652056 -1.06324 1.49354 2.29909 -6.15522 -0.565919 
5 1 2.32458 -0.450905 1.77559 4.92019 4.53055 1.39166 
10 2 -0.135601 1.44772 2.17645 -0.803115 -2.12014 -0.773004 
36 1 2.3646 2.17409 2.83114 0.356565 -1.02121 1.51919 
2 2 3.65753 -0.646709 -0.909731 0.574388 0.47167 -0.677773 
7 2 5.66522 0.516926 -1.63196 2.42246 -1.54864 1.84772 
42 2 5.69145 0.161707 0.631765 -3.28447 -0.769794 -1.77027 
58 1 7.28386 2.05991 -0.166581 0.224774 1.16056 0.489929 
46 2 6.63845 0.403402 2.77619 3.7771 -3.44166 -0.823954 
30 2 4.88466 2.0289 1.40821 -0.361572 -3.20577 -1.95318 
38 2 7.26035 2.90214 2.54114 0.822688 -4.20141 -2.04979 
29 1 -0.663279 3.719 0.735197 -1.60429 0.388083 0.628478 
57 2 1.24662 3.61083 -0.652663 -0.443973 -0.620457 1.44502 
32 2 -0.560086 6.71131 -0.347355 -3.49071 -1.10098 3.0593 
60 1 2.26849 6.9886 0.335664 2.39784 0.694284 2.7184 
45 2 0.390467 5.88356 1.68172 0.838425 2.79926 2.33257 
22 2 2.59631 5.22215 1.84599 1.24698 2.83123 -1.36755 
47 2 1.44611 5.72003 -1.52257 0.362908 2.89549 4.01622 
51 2 2.98396 3.28773 0.861605 1.4617 -0.843003 3.31981 
49 1 5.28697 3.09785 -0.727509 -0.916032 0.575246 2.93801 
52 1 4.12541 5.30027 0.0535141 3.20462 -0.920091 -3.02111 
31 1 4.59075 7.47377 1.06474 -4.65241 -1.34856 3.03157 
43 2 6.23147 7.55544 -1.41401 -1.76607 0.331602 0.43759 
63 2 7.01113 7.53492 1.31382 -0.818043 1.21722 1.69163 
50 2 6.91592 4.93059 -1.10978 -0.479849 -1.3019 1.7522 
20 2 7.54971 5.31131 2.04086 0.810225 -0.506162 5.26678 
23 1 5.44037 4.38544 1.6069 -1.02315 -3.03761 2.90383 
12 2 -0.528135 -0.343033 3.62626 1.80205 -0.524613 -0.224961 
19 2 2.30082 -0.00713491 4.3437 0.681968 1.69602 0.111756 
14 2 -0.0347986 2.83567 3.89472 -1.43497 -0.268728 -0.286198 
21 2 -0.846316 -1.27922 5.9773 -1.46509 0.877875 2.22263 
24 2 -1.54364 0.763845 7.06923 -2.69513 4.38955 -1.24505 
39 2 0.156732 0.849176 5.34136 1.14615 -1.9805 0.470026 
54 2 1.85174 0.408194 6.85999 0.990888 0.233418 -0.419192 
28 2 0.0204575 2.52109 7.1458 -1.99555 5.81602 -3.39075 
55 2 1.66254 2.49132 5.38743 1.27243 0.511053 2.11132 
16 1 4.70607 -0.861581 3.48001 -1.32873 3.98726 -5.20675 
61 2 5.22834 2.08579 3.73372 -1.01426 -3.66485 0.0983007 
37 1 7.45952 1.78444 4.76129 -1.0313 0.0821791 2.82507 
17 2 6.13937 -0.297761 5.58641 -1.0394 -0.351374 -4.28485 
27 2 3.83216 2.98192 5.19099 3.1343 1.63372 1.89911 
59 2 3.80823 1.57581 6.89723 -0.0593732 -1.84869 1.19118 
6 1 6.19092 2.55342 6.49002 -0.914173 2.51518 1.2478 
9 1 4.2323 -1.67488 5.72215 0.401141 2.17103 -3.24588 
8 2 1.2942 4.62223 3.59161 1.03842 -0.637291 -1.96004 
44 2 2.58945 7.00168 3.52779 2.95813 -2.3433 0.289255 
4 2 0.219152 6.71988 4.20816 -0.709594 1.30294 -3.11243 
18 2 -0.669704 5.9554 6.87237 0.159441 -2.12255 0.87683 
48 2 -0.86961 4.66226 5.09085 0.110696 -1.20483 0.074327 
33 2 1.71766 7.46471 6.29888 0.296416 0.957258 -2.94603 
53 1 2.14352 4.84465 5.76501 -2.21602 5.34383 -0.653557 
40 1 3.32639 3.91805 7.65502 -3.008 -3.72516 -2.26856 
62 2 3.74213 6.56946 7.66536 0.202998 1.72215 -1.72012 
56 2 6.29973 4.16756 4.59243 -1.24854 -0.118604 -2.20918 
15 2 3.88227 4.61143 3.62967 -0.000119345 -2.52763 -0.521213 
3 2 7.16141 7.60431 3.78663 0.694381 -1.32928 -0.509821 
26 2 5.50698 6.20671 3.36419 -0.967027 0.831419 -2.05606 
1 1 4.59961 5.14701 6.0009 2.89171 3.09438 -0.702458 
41 2 6.62091 6.40977 5.92775 -1.28201 2.82794 -1.15523 
ITEM: TIMESTEP
180000
ITEM: NUMBER OF ATOMS
63
ITEM: BOX BOUNDS pp pp pp
-1.6485797268827813e+00 7.6485797268827902e+00
-1.6485797268827813e+00 7.6485797268827902e+00
-1.6485797268827813e+00 7.6485797268827902e+00
ITEM: ATOMS id type x y z vx vy vz 
25 2 -1.46309 -0.338927 -0.23102 -0.526894 -1.01024 1.49648 
34 2 0.28632 1.44461 -0.420337 0.0745802 -0.0663846 -5.19317 
35 2 0.809408 -0.914663 -0.943216 -3.84185 -2.8169 -4.23431 
11 2 2.71918 1.39113 -0.188353 0.137858 0.757543 0.4314 
13 1 0.23803 -1.06433 1.47773 1.2114 0.614179 -0.99999 
5 1 2.58459 -0.0271361 1.80428 0.64673 2.54311 0.0416859 
10 2 -0.037926 1.31242 1.90657 1.35831 0.327028 -3.41686 
2 2 3.67251 -0.59108 -0.899114 0.612129 0.22548 -0.12386 
7 2 5.781 0.515599 -1.58059 2.21467 -0.999133 0.218014 
42 2 5.53822 -0.126353 0.662396 -0.557987 -1.20436 -0.202378 
58 1 7.15613 2.11524 -0.047429 -0.751731 -0.0186602 0.943906 
46 2 6.90924 0.342019 2.62246 1.79629 -0.760011 -1.42892 
30 2 4.73599 1.79362 1.53711 -1.52092 -2.45531 0.635163 
38 2 7.15448 2.70644 2.40042 -0.236127 -0.597596 -0.600065 
29 1 -0.675142 3.87275 0.811713 -1.45891 1.44228 0.460196 
57 2 1.24304 3.61032 -0.496734 -0.555245 -0.154436 -0.0371949 
32 2 -0.831852 6.51148 -0.158825 -1.43829 -1.28703 0.984083 
60 1 2.22837 7.26849 0.498613 -1.42968 3.15684 1.8875 
45 2 0.472066 5.80758 1.75748 0.840212 -0.774496 -1.29072 
22 2 2.83314 5.42644 1.74645 1.38269 2.60911 -0.908177 
47 2 1.46447 5.82152 -1.21794 -0.371661 0.316312 1.3977 
51 2 3.03904 3.34692 0.984615 -0.12632 0.986623 1.07817 
49 1 5.03525 3.00397 -0.577839 -2.09015 -2.98319 0.537486 
52 1 4.43982 5.27594 -0.116663 2.70079 1.37354 -1.77611 
31 1 4.40008 7.20624 1.30256 -0.00695832 -1.78562 -0.637578 
43 2 6.08706 7.34314 -1.19489 -0.78973 -2.20427 1.64669 
63 2 6.89437 7.35118 1.42459 0.334408 -2.70344 0.602281 
50 2 6.83618 4.87308 -0.983351 -0.79981 -1.30791 -0.177357 
20 2 7.55933 5.29573 2.6057 1.15108 -0.965301 4.46406 
23 1 5.41109 4.23396 1.76599 0.119576 0.634639 -1.00632 
36 1 2.42637 2.11455 3.04066 0.890814 0.835234 0.496493 
12 2 -0.261658 -0.344273 3.65926 2.45807 0.168344 0.959065 
19 2 2.3886 0.0620314 4.41408 0.0962497 0.0760965 1.5277 
14 2 -0.0194688 2.67953 3.77281 1.03058 -2.16432 -1.53222 
21 2 -0.854035 -1.24083 6.14742 0.17008 0.0821513 1.8519 
24 2 -1.38446 0.973308 7.06666 2.00291 1.44867 1.28121 
39 2 0.213682 0.901546 5.43351 0.293754 2.21275 0.830422 
54 2 1.8949 0.477133 6.89716 0.0216104 1.10722 2.02741 
55 2 1.8041 2.63524 5.46708 -0.244638 1.7904 0.738936 
16 1 4.57184 -0.517106 3.16415 0.94158 1.11609 -1.28278 
61 2 5.08233 1.72512 3.80693 -0.995512 -2.49534 2.47885 
37 1 7.31793 1.83195 4.75155 -0.266523 1.9621 0.350748 
17 2 6.16829 -0.176188 5.32216 0.215957 -0.359517 -0.293464 
59 2 3.91611 1.41126 6.85962 0.557654 -0.805794 -1.04142 
6 1 6.15741 2.91911 6.5887 3.47816 2.93067 0.841836 
9 1 4.1461 -1.50405 5.41213 0.866333 0.784425 -0.433694 
28 2 -0.244755 3.10128 6.86716 -2.83004 5.64605 -1.02433 
8 2 1.37102 4.49935 3.50513 0.211749 -1.28521 -0.560039 
44 2 2.71052 6.93798 3.61353 -1.13332 0.246084 0.196059 
4 2 0.257947 6.64423 4.1652 0.867179 -1.91441 0.971367 
18 2 -0.556323 5.77545 6.90222 0.777108 -1.58016 -0.176992 
48 2 -0.830141 4.5936 4.95837 -0.640243 0.0129444 -1.88765 
33 2 1.62379 7.52826 6.00899 -1.63724 1.95738 -0.671924 
53 1 2.06406 5.1693 5.71435 -0.31883 0.533678 -0.187403 
27 2 4.08264 3.0264 5.33653 1.80019 -0.850427 0.472458 
40 1 3.16011 3.83631 7.45455 -0.698388 1.30939 -0.0964007 
62 2 3.60002 6.63502 7.47508 -2.14279 0.0961751 -1.25347 
56 2 6.19831 4.10881 4.251 -1.19048 -0.585528 -1.61028 
15 2 3.73135 4.34543 3.56982 -1.14034 -2.28816 -0.170755 
3 2 7.24678 7.41243 3.81416 0.6372 -0.237285 -0.409944 
26 2 5.21459 6.27205 3.3261 -1.93132 0.817756 2.86041 
1 1 4.59959 5.25232 5.87167 -0.374994 1.07812 -1.56185 
41 2 6.61681 6.43907 5.83435 0.413901 -1.34937 1.33685 
ITEM: TIMESTEP
190000
ITEM: NUMBER OF ATOMS
63
ITEM: BOX BOUNDS pp pp pp
-1.6295138029341922e+00 7.6295138029342011e+00
-1.6295138029341922e+00 7.6295138029342011e+00
-1.6295138029341922e+00 7.6295138029342011e+00
ITEM: ATOMS id type x y z vx vy vz 
25 2 -1.50017 -0.349455 -0.103271 -0.135928 0.189044 -0.246466 
34 2 0.339821 1.38476 -0.678471 0.125665 -1.3851 -0.637117 
35 2 0.53344 -1.13029 -1.14739 -0.69742 -0.672299 0.286635 
11 2 2.73981 1.52274 -0.214004 0.64273 0.331417 0.146355 
13 1 0.119302 -1.07426 1.47835 -2.0665 -0.573653 0.189924 
5 1 2.56459 0.09953 1.91394 -0.695392 -0.0288558 1.03461 
10 2 0.0924609 1.41996 1.59438 0.849107 0.877086 -1.5438 
2 2 3.73012 -0.545571 -0.906572 0.648993 0.633982 -0.145767 
7 2 5.86834 0.391221 -1.58627 -0.0666257 -2.0052 -0.136908 
42 2 5.54861 -0.0667173 0.681324 -0.0228716 1.98957 1.19288 
58 1 7.13269 2.06851 0.0251034 -0.0635702 -0.693053 0.416832 
46 2 7.05514 0.281376 2.56551 1.67302 -0.280184 0.0396034 
30 2 4.61875 1.78695 1.67845 -0.268023 1.44751 1.30766 
38 2 7.0936 2.68067 2.4586 -0.859587 -0.0595458 0.772053 
49 1 4.92667 2.77098 -0.595536 0.468897 -1.47061 -0.461621 
29 1 -0.799119 3.92277 0.782407 -0.643337 0.188156 -0.344736 
57 2 1.16318 3.56077 -0.463308 -0.322253 -0.888817 0.599398 
32 2 -0.868105 6.37319 -0.184834 -1.23856 -0.750833 -0.577122 
60 1 2.20157 7.50175 0.501479 0.0839197 2.00552 -0.738733 
45 2 0.546044 5.83078 1.66575 0.24476 0.411527 -0.872863 
22 2 2.88446 5.5573 1.71609 0.235066 1.75621 -0.663783 
47 2 1.43578 5.78551 -0.993817 -0.260904 -1.0715 2.44027 
20 2 -1.60239 5.20701 2.70096 0.190357 -0.204622 -0.791873 
51 2 3.00978 3.42785 1.05302 -0.499162 0.676251 -0.116849 
52 1 4.51457 5.24612 -0.294619 -0.692571 -1.29063 -1.10792 
31 1 4.47963 7.14444 1.17663 0.506684 -0.639375 -1.57933 
43 2 5.99735 7.19863 -1.07571 -0.356391 -0.368067 0.373804 
63 2 6.85827 7.12481 1.49501 -0.187062 -0.831519 0.277568 
50 2 6.84908 4.71825 -0.985338 1.1667 -0.20885 0.499407 
23 1 5.45987 4.35261 1.6605 1.43698 1.47597 -0.709626 
36 1 2.46781 2.15393 3.11059 -0.223933 0.426715 1.018 
12 2 0.00290862 -0.294808 3.67253 2.67907 0.673303 -0.14963 
19 2 2.46276 0.188115 4.50655 1.93856 1.46773 1.08939 
14 2 0.0459685 2.5354 3.6271 0.281801 -1.28037 -1.20787 
21 2 -0.918261 -1.16004 6.16741 -1.12354 0.642951 -1.25852 
24 2 -1.36978 1.09034 7.06672 -1.11401 0.277005 -0.540722 
39 2 0.261089 1.02284 5.48632 0.225388 0.104202 0.540857 
54 2 1.88061 0.566177 7.01225 0.664101 -0.73529 0.112663 
55 2 1.79355 2.79376 5.55086 -0.475519 0.773481 0.803909 
16 1 4.66772 -0.665355 3.10803 0.969426 -1.07246 0.162024 
61 2 5.08262 1.56869 3.94029 -0.0788396 -1.40497 1.57284 
37 1 7.33132 1.93801 4.81762 0.634072 0.103596 -0.0228521 
17 2 6.26898 -0.181938 5.33642 0.907984 0.378544 0.00930056 
59 2 4.02406 1.27126 6.73721 0.451285 -1.91453 -2.50749 
9 1 4.20366 -1.39913 5.47251 0.183243 1.60248 0.744947 
28 2 -0.375787 3.31652 6.90958 0.174579 -0.950903 1.79151 
8 2 1.34926 4.46163 3.40144 -0.228632 0.275035 -0.623083 
44 2 2.59195 7.00536 3.60723 -0.480335 1.5265 0.146832 
4 2 0.237649 6.54475 4.19923 -1.34644 -0.0985329 0.233788 
18 2 -0.447839 5.75918 6.8032 1.8 1.54452 -1.94813 
48 2 -0.884963 4.44384 4.83704 -0.209818 -2.2882 0.817556 
33 2 1.6076 7.63062 5.96336 0.278124 0.835408 -0.926808 
53 1 1.97057 5.22555 5.70222 -1.63057 0.874002 0.183246 
6 1 6.34636 3.05013 6.65377 -1.19309 -0.500047 -0.320666 
27 2 4.13918 3.07219 5.43249 -0.0458459 0.487556 0.67768 
40 1 3.15903 3.93893 7.49421 -0.816109 0.295638 0.632838 
62 2 3.40948 6.64803 7.39674 -1.52103 0.590846 0.661392 
56 2 6.0431 4.0312 4.25489 -0.0181447 -0.24292 0.159783 
15 2 3.73579 4.23041 3.46239 0.422454 -0.620181 -0.919286 
3 2 7.28135 7.44858 3.87634 0.430142 0.0191775 0.580164 
26 2 5.1614 6.25007 3.54207 0.841635 -0.414828 -0.504849 
1 1 4.46605 5.3684 5.73758 -1.85024 1.75703 -0.227912 
41 2 6.65555 6.29181 5.91567 -0.149817 -1.50357 0.231005 
ITEM: TIMESTEP
200000
ITEM: NUMBER OF ATOMS
63
ITEM: BOX BOUNDS pp pp pp
-1.6191259485950917e+00 7.6191259485951006e+00
-1.6191259485950917e+00 7.6191259485951006e+00
-1.6191259485950917e+00 7.6191259485951006e+00
ITEM: ATOMS id type x y z vx vy vz 
25 2 -1.5553 -0.395803 -0.188066 -0.682945 -1.1001 -0.867312 
34 2 0.332838 1.22876 -0.744913 -0.172692 -1.75127 -0.673368 
35 2 0.554424 -1.17439 -1.18314 0.328884 -1.31549 -1.00317 
11 2 2.76695 1.47491 -0.115655 -0.41829 -0.5007 1.91268 
13 1 0.00948572 -1.09241 1.47844 -0.816658 0.0273666 -0.20952 
5 1 2.53627 0.126544 2.04848 0.270982 0.285471 1.46757 
10 2 0.17137 1.41858 1.55416 0.784862 -0.483909 -0.299569 
60 1 2.16059 -1.61124 0.532568 -0.640434 0.75978 0.693275 
2 2 3.78572 -0.495252 -0.86083 0.136683 -0.0260207 0.575904 
7 2 5.81969 0.268627 -1.56414 -0.407042 -0.108539 0.0872356 
42 2 5.51219 0.118718 0.811919 0.0599138 2.14333 0.770328 
58 1 7.14179 2.03461 0.0568608 0.338686 -0.168746 -0.366033 
46 2 7.21852 0.295182 2.61025 1.57931 0.388333 0.575698 
30 2 4.63175 2.01878 1.83294 0.693817 2.27225 1.37022 
38 2 7.01862 2.67707 2.45024 -0.355793 0.192103 -0.0249719 
49 1 4.90479 2.66376 -0.623268 -0.837431 -1.09343 -0.247534 
29 1 -0.808779 3.90138 0.826848 -0.464521 0.18019 0.49707 
57 2 1.15144 3.35951 -0.331238 -0.285927 -2.19123 1.52085 
32 2 -0.946175 6.38163 -0.24983 -0.629244 -0.116002 -0.866172 
45 2 0.534343 5.80514 1.59814 -0.494078 -0.417998 -0.0811749 
22 2 2.89254 5.67827 1.72837 0.300063 1.24168 0.427915 
47 2 1.39474 5.65645 -0.752692 -0.323704 -1.7667 2.02678 
20 2 -1.54428 5.19751 2.79395 0.669871 0.218593 1.35768 
51 2 2.99877 3.51662 1.05477 0.355061 0.999777 -0.386088 
52 1 4.47135 5.1437 -0.361188 -0.61163 -0.414283 -1.04727 
31 1 4.50561 7.17626 0.992895 -0.221968 0.504735 -1.54876 
43 2 5.97274 7.11099 -1.09356 -0.27458 -1.3146 -1.08123 
63 2 6.84847 7.17686 1.50262 -0.00679758 0.696771 0.148877 
50 2 6.83524 4.65337 -1.04051 -0.357036 -1.01223 -1.23659 
23 1 5.57256 4.47865 1.58626 1.19307 0.990437 -0.925115 
36 1 2.44765 2.22318 3.12039 -0.19558 0.851222 -0.47422 
12 2 0.306877 -0.274021 3.66044 3.2109 -0.464166 0.149232 
19 2 2.67334 0.344991 4.59305 1.08713 1.16957 0.044345 
14 2 0.0770314 2.48986 3.59701 -0.0259702 -0.0809133 0.0589094 
21 2 -0.909176 -1.13094 6.08637 -0.270289 -0.073866 -0.282224 
24 2 -1.46093 1.09984 7.03697 -0.927387 0.480948 -0.472055 
39 2 0.287933 1.00151 5.57205 0.0389894 -0.804194 1.07055 
54 2 2.01114 0.470547 7.03367 2.00535 -0.130587 0.581378 
55 2 1.71089 2.8136 5.57672 -1.27781 -0.102481 -0.174169 
33 2 1.55598 -1.55419 5.82738 -0.443527 0.356087 -1.56417 
16 1 4.73758 -0.655379 3.07797 0.518344 0.0702617 -0.283733 
61 2 5.00116 1.52724 4.08995 -0.659558 0.780709 0.46213 
37 1 7.35004 1.93457 4.76531 -0.237015 -0.252654 -0.424035 
17 2 6.26968 -0.15768 5.28754 0.274105 -0.396651 -0.320213 
59 2 4.13346 1.12387 6.40099 2.02188 -0.360779 -2.25273 
9 1 4.22208 -1.32285 5.58526 0.0533999 -0.786637 1.246 
6 1 6.21046 2.97873 6.57452 -0.693647 -0.814627 -0.915576 
28 2 -0.390785 3.31209 7.07547 -1.03838 0.916567 1.71816 
8 2 1.35753 4.49037 3.40031 0.417618 0.22617 0.173393 
44 2 2.58188 7.1182 3.61788 0.199137 0.878196 0.167676 
4 2 0.185821 6.48219 4.18321 0.105036 -0.455348 -0.619461 
18 2 -0.279156 5.85776 6.70567 0.176161 0.203778 0.676372 
48 2 -0.811759 4.28879 4.93203 1.09681 -0.461936 1.0879 
53 1 1.88894 5.23884 5.73431 0.431102 -0.330223 0.451423 
27 2 4.02843 3.18289 5.40401 -1.85065 1.28488 -0.36091 
40 1 3.03082 3.86015 7.4843 -1.18479 -0.999277 0.515746 
62 2 3.24961 6.69529 7.48509 -1.89825 -0.0853583 0.524249 
56 2 6.05335 4.077 4.28157 -0.0878825 0.494941 0.550988 
15 2 3.78692 4.24253 3.36327 0.809956 0.604388 -1.2275 
3 2 7.27653 7.44182 3.85974 0.00681455 0.251134 0.168978 
26 2 5.20293 6.22424 3.38934 -0.33564 0.636132 -1.32704 
1 1 4.29366 5.50805 5.65233 -1.01835 1.74022 -1.31669 
41 2 6.64009 6.12287 5.90389 0.666973 -1.42293 -0.421362 
ITEM: TIMESTEP
210000
ITEM: NUMBER OF ATOMS
63
ITEM: BOX BOUNDS pp pp pp
-1.6137541821593384e+00 7.6137541821593473e+00
-1.6137541821593384e+00 7.6137541821593473e+00
-1.6137541821593384e+00 7.6137541821593473e+00
ITEM: ATOMS id type x y z vx vy vz 
25 2 -1.56478 -0.488122 -0.278686 0.306953 -1.05054 -0.893614 
34 2 0.322671 1.02999 -0.821672 0.180837 -2.00037 -0.741943 
35 2 0.615614 -1.33202 -1.26114 0.468689 -1.61664 -0.374356 
11 2 2.70627 1.39895 0.111273 -0.375062 -0.805195 1.43866 
13 1 -0.0798919 -1.08868 1.48286 -0.950468 0.121314 -0.033816 
5 1 2.63407 0.0895179 2.13406 1.59078 -1.0472 0.775175 
10 2 0.268546 1.41201 1.50587 0.977917 -0.196181 -0.708107 
60 1 2.09274 -1.54896 0.555779 -0.374568 0.428035 -0.100102 
2 2 3.78685 -0.511343 -0.845115 -0.0935768 -0.127034 -0.35906 
7 2 5.82179 0.231353 -1.52197 0.15468 -0.685617 0.0588241 
42 2 5.53844 0.251803 0.85745 0.485291 0.207803 0.422083 
58 1 7.18876 2.04008 0.0202814 0.726673 -0.0242775 0.0390964 
46 2 7.33135 0.329048 2.64653 0.683347 0.30533 0.105365 
30 2 4.6765 2.2 1.82857 0.26127 1.25902 -1.00426 
38 2 7.0193 2.7205 2.46368 0.183978 0.32899 -0.184398 
49 1 4.85826 2.55865 -0.643291 -0.203801 -0.811076 -0.28718 
29 1 -0.919402 3.99443 0.815537 -1.29902 1.56431 -0.422301 
57 2 1.04662 3.15655 -0.155259 -1.28647 -1.97132 2.20946 
32 2 -1.01489 6.2997 -0.210666 -0.323985 -0.572238 0.863823 
45 2 0.512198 5.82661 1.6733 -0.087683 0.539843 1.35089 
22 2 2.89779 5.77159 1.73721 0.12082 0.611802 -0.0239994 
47 2 1.3801 5.47061 -0.590386 -0.240087 -1.51117 1.38996 
20 2 -1.54212 5.20726 2.87071 -0.195657 0.106259 0.676675 
51 2 3.04166 3.63916 0.957133 -0.102581 0.916521 -1.4723 
52 1 4.43369 5.14713 -0.449986 -0.358689 0.568921 -1.20202 
31 1 4.5349 7.22503 0.920399 0.0116185 0.352871 -0.138648 
43 2 5.91815 7.03673 -1.25908 -0.506883 -0.165627 -1.93154 
63 2 6.81618 7.17514 1.52774 -0.111865 0.0084484 0.290207 
50 2 6.77727 4.59379 -1.10225 -1.22521 -0.0486564 -0.523758 
23 1 5.71192 4.60172 1.45327 1.29858 1.42731 -1.48753 
36 1 2.44754 2.28028 3.04677 0.230791 -0.260985 -1.2367 
12 2 0.526261 -0.312126 3.62898 0.757892 -0.0590627 -0.966445 
19 2 2.72097 0.422488 4.59937 0.787918 1.2646 0.412117 
14 2 0.064011 2.45264 3.56477 0.252617 -0.434082 -0.509086 
21 2 -0.983929 -1.17124 6.12602 -1.15378 -0.684455 1.28963 
24 2 -1.51125 1.17113 6.98503 -0.407661 0.651688 -0.372853 
39 2 0.307769 0.853297 5.6239 0.0171331 -1.86536 -0.166504 
54 2 2.15873 0.53579 7.03201 0.513376 1.17868 0.113547 
55 2 1.53288 2.82026 5.56846 -2.08302 0.210088 0.252857 
33 2 1.56151 -1.48342 5.76201 0.0292314 0.669442 0.0142995 
16 1 4.8083 -0.582466 3.09802 1.04548 0.796581 0.465303 
61 2 5.02701 1.64338 4.06232 0.412276 1.55375 -0.210634 
37 1 7.35881 1.91561 4.74595 0.575927 0.14483 0.237938 
17 2 6.23097 -0.156534 5.27708 -0.352645 0.575096 -0.0842707 
59 2 4.26223 1.22607 6.37698 0.451568 1.41385 0.75959 
9 1 4.19192 -1.26189 5.68021 -0.908996 1.20806 1.3759 
6 1 6.08491 2.94799 6.49968 -1.09726 0.494085 -0.545402 
28 2 -0.470196 3.35979 7.25574 -0.372202 0.0610337 1.28566 
8 2 1.43026 4.48965 3.42363 0.793798 -0.112566 0.436537 
44 2 2.64671 7.15655 3.64254 1.0447 -0.0848797 0.58568 
4 2 0.220161 6.47451 4.17125 0.465816 -0.00590614 0.69362 
18 2 -0.254391 5.83333 6.77154 0.432632 -0.414664 0.534564 
48 2 -0.73044 4.25493 4.99231 0.557801 -0.647769 0.170712 
53 1 1.89752 5.22836 5.76908 -0.0141534 0.0763209 0.222615 
40 1 2.89827 3.72584 7.56615 -1.48073 -1.96439 0.613221 
27 2 3.84852 3.27238 5.37754 -2.02936 0.52741 -0.66792 
62 2 3.05438 6.67885 7.47382 -1.35959 -0.0147352 -0.356628 
56 2 6.04978 4.09379 4.30705 0.124446 -0.226372 -0.0447729 
15 2 3.89762 4.2453 3.25406 1.15917 -0.2709 -1.27537 
3 2 7.30549 7.44714 3.87177 0.463138 0.383002 -0.0356551 
26 2 5.19154 6.27923 3.32623 0.303414 0.28054 -0.150721 
1 1 4.30323 5.59617 5.56588 0.258604 0.615573 0.164109 
41 2 6.70595 6.00256 5.82211 0.793301 -0.890043 -0.855411 
ITEM: TIMESTEP
220000
ITEM: NUMBER OF ATOMS
63
ITEM: BOX BOUNDS pp pp pp
-1.6083472229398605e+00 7.6083472229398694e+00
-1.6083472229398605e+00 7.6083472229398694e+00
-1.6083472229398605e+00 7.6083472229398694e+00
ITEM: ATOMS id type x y z vx vy vz 
25 2 -1.57977 -0.555029 -0.372334 -0.616334 -0.256008 -0.78824 
34 2 0.310297 0.918862 -0.833147 -0.301237 -0.348744 0.370421 
35 2 0.647118 -1.43886 -1.26003 0.354146 -0.251167 0.0252417 
11 2 2.7202 1.36223 0.175241 0.263065 -0.0952655 0.45061 
13 1 -0.120585 -1.10018 1.42073 -0.429852 -0.648273 -0.928516 
5 1 2.82662 -0.030358 2.20192 2.24698 -0.891175 0.215935 
10 2 0.323684 1.26626 1.50969 0.393874 -2.16294 0.375605 
60 1 2.07928 -1.51455 0.581478 -0.00441749 0.115259 0.392326 
36 1 2.47292 2.24734 2.86199 0.0990356 -0.520791 -2.07998 
2 2 3.7648 -0.506584 -0.876446 -0.387424 0.173801 -0.215192 
7 2 5.8093 0.212026 -1.55293 -0.463265 0.269255 -0.59316 
42 2 5.58003 0.237144 0.860287 0.0896559 -0.349468 -0.363177 
58 1 7.25651 2.00048 0.0665247 0.671949 -0.481047 0.744496 
46 2 7.36126 0.392611 2.64965 0.261229 0.661279 -0.101431 
30 2 4.73339 2.24398 1.75681 0.822975 -0.244888 -0.631914 
38 2 7.02198 2.76742 2.43893 0.0617897 1.00318 -0.0891936 
49 1 4.88243 2.53612 -0.669962 0.866106 0.407757 -0.303829 
29 1 -1.00461 4.10778 0.796935 -0.636554 0.728334 -0.0067749 
57 2 0.9345 3.0463 0.0176685 -0.740208 -0.663123 1.35306 
32 2 -1.02553 6.30123 -0.212834 -0.22564 0.347308 -0.36344 
45 2 0.510475 5.85884 1.79428 -0.148343 -0.0307973 0.790976 
22 2 2.89775 5.79326 1.76084 -0.179718 0.26698 0.376646 
47 2 1.37586 5.35324 -0.46071 0.053893 -0.72134 0.976073 
20 2 -1.53267 5.23971 2.95365 -0.194624 0.550163 0.50151 
51 2 3.0224 3.67081 0.871455 0.10339 -0.0430822 -0.292755 
52 1 4.33843 5.13945 -0.567023 -0.929329 -0.9564 -1.00698 
31 1 4.52481 7.23317 0.900556 0.0697948 -0.341382 -0.383724 
43 2 5.87411 7.00988 -1.39544 -0.597511 -0.279128 -0.842878 
63 2 6.80442 7.20526 1.5576 -0.0146321 0.402548 0.364885 
50 2 6.70194 4.64273 -1.15734 0.0628085 0.651574 -0.496703 
23 1 5.75982 4.72516 1.3295 -0.0926425 1.0962 -0.875164 
12 2 0.610037 -0.303625 3.53406 1.34567 -0.380719 -0.859224 
19 2 2.76407 0.563547 4.62207 -0.227756 0.916612 -0.155353 
14 2 0.12477 2.41987 3.49133 0.431559 -0.0178264 -0.697563 
21 2 -1.1349 -1.21586 6.31743 -1.7323 -0.37101 2.37087 
24 2 -1.52899 1.24981 6.978 -0.362526 1.14454 -0.0395024 
39 2 0.245311 0.707448 5.58911 -1.39107 -1.25014 -0.357155 
54 2 2.16013 0.671988 7.02314 -0.34513 1.42038 -0.300579 
55 2 1.33453 2.78884 5.61597 -1.53801 -0.773628 0.558627 
33 2 1.55155 -1.39601 5.74808 -0.0184976 0.839563 0.121258 
16 1 4.94523 -0.558888 3.1692 1.52718 -0.185394 0.544185 
61 2 5.02597 1.76281 4.04573 -0.20067 0.380011 -0.198327 
37 1 7.40498 1.96936 4.72809 0.179952 0.427117 -0.42351 