ITEM: TIMESTEP
150000
ITEM: NUMBER OF ATOMS
63
ITEM: BOX BOUNDS pp pp pp
-2.0000000000000000e-02 6.0199999999999996e+00
-2.0000000000000000e-02 6.0199999999999996e+00
-2.0000000000000000e-02 6.0199999999999996e+00
ITEM: ATOMS id x y z 
1 3.92987 4.29587 4.57663 
2 3.3477 0.480378 0.777208 
3 5.76762 5.88618 3.80855 
4 1.30839 5.384 4.00861 
5 2.47938 1.13024 2.77639 
6 4.96036 2.39344 5.46463 
7 4.78631 1.23359 0.198696 
8 1.74765 3.97808 4.09194 
9 3.32431 5.67928 4.97318 
10 1.34323 2.35 2.44366 
11 2.60984 1.84585 0.496057 
12 0.54309 1.17185 3.80092 
13 0.801194 1.02326 2.38026 
14 0.730129 3.07258 3.47316 
15 2.52738 3.91117 2.92913 
16 3.88061 0.85958 3.31439 
17 5.24343 0.84011 4.54009 
18 0.59615 4.78553 5.19762 
19 2.48999 1.40617 4.10371 
20 5.91833 4.92352 2.19547 
21 0.36693 0.347316 4.39574 
22 2.60609 5.10074 2.53975 
23 4.12482 3.72898 2.18595 
24 0.463155 1.22959 5.96896 
25 0.305073 0.324907 0.80058 
26 5.24007 5.02334 3.22372 
27 3.57746 3.05441 4.29298 
28 1.67157 2.83617 5.70643 
29 0.846234 3.06864 1.66719 
30 4.17963 2.32939 2.47145 
31 4.13022 5.7894 1.74535 
32 1.03244 5.59969 0.44019 
33 1.91994 0.0325633 4.83263 
34 0.715996 1.61998 0.686284 
35 2.6194 0.483911 0.478512 
36 3.05097 1.65507 2.99866 
37 5.93392 2.03558 3.98832 
38 0.207204 3.75365 3.25445 
39 1.08594 2.18581 4.63336 
40 2.92827 3.77308 5.94254 
41 5.22027 4.96963 4.88045 
42 5.49515 0.864277 1.64202 
43 5.16209 5.76528 0.473067 
44 2.11716 5.75548 3.19837 
45 1.05098 4.79218 1.34566 
46 5.25395 1.61772 2.11967 
47 2.29936 5.21169 5.52974 
48 0.414335 3.98975 4.60547 
49 4.61394 2.81917 0.849888 
50 5.77889 4.16267 0.155476 
51 3.25448 2.69699 1.41265 
52 3.62437 4.54658 1.78158 
53 2.45805 4.15847 4.47994 
54 2.41676 1.41787 5.52168 
55 1.70332 3.08619 4.42301 
56 5.06162 3.54113 3.40464 
57 1.34557 3.02912 0.745968 
58 5.6714 2.09401 0.6112 
59 3.14928 1.95523 5.51606 
60 2.02653 5.25082 1.41615 
61 4.72867 2.98491 3.55499 
62 3.68903 5.35949 0.349459 
63 0.0490779 5.3267 1.52028 
ITEM: TIMESTEP
160000
ITEM: NUMBER OF ATOMS
63
ITEM: BOX BOUNDS pp pp pp
-1.9085599414050787e+00 7.9085599414050876e+00
-1.9085599414050787e+00 7.9085599414050876e+00
-1.9085599414050787e+00 7.9085599414050876e+00
ITEM: ATOMS id x y z 
25 -1.52314 -0.711816 -0.496966 
34 -0.0367267 1.23536 -0.129524 
35 1.09585 -0.695204 -0.735227 
2 3.53987 -0.836257 -0.991702 
11 2.49746 1.2584 -0.938303 
7 5.72867 0.509487 -1.34327 
42 6.35702 -0.208869 0.575099 
29 -0.848069 3.56584 0.617146 
57 1.03149 3.52978 -1.04025 
51 3.29073 3.31183 0.331507 
40 3.42598 4.30442 -1.7953 
49 5.43004 2.9052 -1.00396 
58 7.43582 2.05449 -0.296973 
32 -0.212802 7.31131 -0.549805 
45 0.235342 5.88399 1.35909 
52 3.99887 5.58797 0.311182 
60 1.90746 6.66089 0.0168193 
62 3.61107 6.72454 -1.80933 
31 4.88427 7.60011 0.668384 
43 6.59495 7.6186 -1.30825 
63 7.51427 7.76673 0.920946 
50 7.21861 5.39736 -1.61293 
12 -0.717977 -0.261913 3.67436 
13 -0.597852 -0.735983 1.52506 
5 1.9632 -0.852094 1.68806 
16 4.65384 -1.31034 4.03457 
46 6.57627 0.564435 2.52829 
10 -0.238941 1.6091 2.12647 
14 -0.405487 2.97798 3.69152 
36 2.54964 2.14623 2.98405 
38 7.51149 3.7359 2.45977 
30 4.74784 2.37895 1.71589 
56 6.51193 4.17608 4.58827 
61 5.63698 2.40592 3.88534 
8 1.13414 5.05654 3.92591 
20 7.8915 5.67165 1.65989 
15 3.54016 4.74857 3.72664 
22 2.30137 5.45094 2.00107 
44 2.19926 7.35362 3.5187 
3 7.28707 7.69958 4.24823 
23 5.61552 4.77529 1.52348 
26 5.74425 6.1068 3.44754 
21 -0.886392 -1.47328 5.8991 
24 -1.33875 -0.00290517 7.38634 
39 -0.246464 0.800453 5.56021 
19 2.16444 -0.168806 4.61628 
54 1.61071 0.108173 6.93614 
17 6.78498 -0.448652 5.87281 
28 0.0315881 1.97066 7.50939 
55 1.50972 2.09354 5.49059 
27 3.65468 2.80944 5.01271 
59 3.65628 1.64052 6.93856 
37 7.5887 1.5294 4.6206 
6 6.47023 2.47765 6.42928 
4 0.23591 6.84657 4.76524 
18 -0.755128 6.13557 6.8346 
47 1.31842 5.75486 7.84316 
48 -1.03544 4.70577 5.02705 
9 4.05944 7.70539 6.0673 
33 1.51418 7.73287 6.48165 
53 2.32946 4.71977 5.94547 
1 4.80169 5.11365 5.99351 
41 6.79742 6.0602 5.86139 
ITEM: TIMESTEP
170000
ITEM: NUMBER OF ATOMS
63
ITEM: BOX BOUNDS pp pp pp
-1.7069063179281461e+00 7.7069063179281549e+00
-1.7069063179281461e+00 7.7069063179281549e+00
-1.7069063179281461e+00 7.7069063179281549e+00
ITEM: ATOMS id x y z 
25 -1.48179 -0.379924 -0.282487 
34 0.252178 1.47203 -0.0842758 
35 1.0621 -0.70372 -0.677758 
11 2.58439 1.40564 -0.437946 
13 -0.0652056 -1.06324 1.49354 
5 2.32458 -0.450905 1.77559 
10 -0.135601 1.44772 2.17645 
36 2.3646 2.17409 2.83114 
2 3.65753 -0.646709 -0.909731 
7 5.66522 0.516926 -1.63196 
42 5.69145 0.161707 0.631765 
58 7.28386 2.05991 -0.166581 
46 6.63845 0.403402 2.77619 
30 4.88466 2.0289 1.40821 
38 7.26035 2.90214 2.54114 
29 -0.663279 3.719 0.735197 
57 1.24662 3.61083 -0.652663 
32 -0.560086 6.71131 -0.347355 
60 2.26849 6.9886 0.335664 
45 0.390467 5.88356 1.68172 
22 2.59631 5.22215 1.84599 
47 1.44611 5.72003 -1.52257 
51 2.98396 3.28773 0.861605 
49 5.28697 3.09785 -0.727509 
52 4.12541 5.30027 0.0535141 
31 4.59075 7.47377 1.06474 
43 6.23147 7.55544 -1.41401 
63 7.01113 7.53492 1.31382 
50 6.91592 4.93059 -1.10978 
20 7.54971 5.31131 2.04086 
23 5.44037 4.38544 1.6069 
12 -0.528135 -0.343033 3.62626 
19 2.30082 -0.00713491 4.3437 
14 -0.0347986 2.83567 3.89472 
21 -0.846316 -1.27922 5.9773 
24 -1.54364 0.763845 7.06923 
39 0.156732 0.849176 5.34136 
54 1.85174 0.408194 6.85999 
28 0.0204575 2.52109 7.1458 
55 1.66254 2.49132 5.38743 
16 4.70607 -0.861581 3.48001 
61 5.22834 2.08579 3.73372 
37 7.45952 1.78444 4.76129 
17 6.13937 -0.297761 5.58641 
27 3.83216 2.98192 5.19099 
59 3.80823 1.57581 6.89723 
6 6.19092 2.55342 6.49002 
9 4.2323 -1.67488 5.72215 
8 1.2942 4.62223 3.59161 
44 2.58945 7.00168 3.52779 
4 0.219152 6.71988 4.20816 
18 -0.669704 5.9554 6.87237 
48 -0.86961 4.66226 5.09085 
33 1.71766 7.46471 6.29888 
53 2.14352 4.84465 5.76501 
40 3.32639 3.91805 7.65502 
62 3.74213 6.56946 7.66536 
56 6.29973 4.16756 4.59243 
15 3.88227 4.61143 3.62967 
3 7.16141 7.60431 3.78663 
26 5.50698 6.20671 3.36419 
1 4.59961 5.14701 6.0009 
41 6.62091 6.40977 5.92775 
ITEM: TIMESTEP
180000
ITEM: NUMBER OF ATOMS
63
ITEM: BOX BOUNDS pp pp pp
-1.6485797268827813e+00 7.6485797268827902e+00
-1.6485797268827813e+00 7.6485797268827902e+00
-1.6485797268827813e+00 7.6485797268827902e+00
ITEM: ATOMS id x y z 
25 -1.46309 -0.338927 -0.23102 
34 0.28632 1.44461 -0.420337 
35 0.809408 -0.914663 -0.943216 
11 2.71918 1.39113 -0.188353 
13 0.23803 -1.06433 1.47773 
5 2.58459 -0.0271361 1.80428 
10 -0.037926 1.31242 1.90657 
2 3.67251 -0.59108 -0.899114 
7 5.781 0.515599 -1.58059 
42 5.53822 -0.126353 0.662396 
58 7.15613 2.11524 -0.047429 
46 6.90924 0.342019 2.62246 
30 4.73599 1.79362 1.53711 
38 7.15448 2.70644 2.40042 
29 -0.675142 3.87275 0.811713 
57 1.24304 3.61032 -0.496734 
32 -0.831852 6.51148 -0.158825 
60 2.22837 7.26849 0.498613 
45 0.472066 5.80758 1.75748 
22 2.83314 5.42644 1.74645 
47 1.46447 5.82152 -1.21794 
51 3.03904 3.34692 0.984615 
49 5.03525 3.00397 -0.577839 
52 4.43982 5.27594 -0.116663 
31 4.40008 7.20624 1.30256 
43 6.08706 7.34314 -1.19489 
63 6.89437 7.35118 1.42459 
50 6.83618 4.87308 -0.983351 
20 7.55933 5.29573 2.6057 
23 5.41109 4.23396 1.76599 
36 2.42637 2.11455 3.04066 
12 -0.261658 -0.344273 3.65926 
19 2.3886 0.0620314 4.41408 
14 -0.0194688 2.67953 3.77281 
21 -0.854035 -1.24083 6.14742 
24 -1.38446 0.973308 7.06666 
39 0.213682 0.901546 5.43351 
54 1.8949 0.477133 6.89716 
55 1.8041 2.63524 5.46708 
16 4.57184 -0.517106 3.16415 
61 5.08233 1.72512 3.80693 
37 7.31793 1.83195 4.75155 
17 6.16829 -0.176188 5.32216 
59 3.91611 1.41126 6.85962 
6 6.15741 2.91911 6.5887 
9 4.1461 -1.50405 5.41213 
28 -0.244755 3.10128 6.86716 
8 1.37102 4.49935 3.50513 
44 2.71052 6.93798 3.61353 
4 0.257947 6.64423 4.1652 
18 -0.556323 5.77545 6.90222 
48 -0.830141 4.5936 4.95837 
33 1.62379 7.52826 6.00899 
53 2.06406 5.1693 5.71435 
27 4.08264 3.0264 5.33653 
40 3.16011 3.83631 7.45455 
62 3.60002 6.63502 7.47508 
56 6.19831 4.10881 4.251 
15 3.73135 4.34543 3.56982 
3 7.24678 7.41243 3.81416 
26 5.21459 6.27205 3.3261 
1 4.59959 5.25232 5.87167 
41 6.61681 6.43907 5.83435 
ITEM: TIMESTEP
190000
ITEM: NUMBER OF ATOMS
63
ITEM: BOX BOUNDS pp pp pp
-1.6295138029341922e+00 7.6295138029342011e+00
-1.6295138029341922e+00 7.6295138029342011e+00
-1.6295138029341922e+00 7.6295138029342011e+00
ITEM: ATOMS id x y z 
25 -1.50017 -0.349455 -0.103271 
34 0.339821 1.38476 -0.678471 
35 0.53344 -1.13029 -1.14739 
11 2.73981 1.52274 -0.214004 
13 0.119302 -1.07426 1.47835 
5 2.56459 0.09953 1.91394 
10 0.0924609 1.41996 1.59438 
2 3.73012 -0.545571 -0.906572 
7 5.86834 0.391221 -1.58627 
42 5.54861 -0.0667173 0.681324 
58 7.13269 2.06851 0.0251034 
46 7.05514 0.281376 2.56551 
30 4.61875 1.78695 1.67845 
38 7.0936 2.68067 2.4586 
49 4.92667 2.77098 -0.595536 
29 -0.799119 3.92277 0.782407 
57 1.16318 3.56077 -0.463308 
32 -0.868105 6.37319 -0.184834 
60 2.20157 7.50175 0.501479 
45 0.546044 5.83078 1.66575 
22 2.88446 5.5573 1.71609 
47 1.43578 5.78551 -0.993817 
20 -1.60239 5.20701 2.70096 
51 3.00978 3.42785 1.05302 
52 4.51457 5.24612 -0.294619 
31 4.47963 7.14444 1.17663 
43 5.99735 7.19863 -1.07571 
63 6.85827 7.12481 1.49501 
50 6.84908 4.71825 -0.985338 
23 5.45987 4.35261 1.6605 
36 2.46781 2.15393 3.11059 
12 0.00290862 -0.294808 3.67253 
19 2.46276 0.188115 4.50655 
14 0.0459685 2.5354 3.6271 
21 -0.918261 -1.16004 6.16741 
24 -1.36978 1.09034 7.06672 
39 0.261089 1.02284 5.48632 
54 1.88061 0.566177 7.01225 
55 1.79355 2.79376 5.55086 
16 4.66772 -0.665355 3.10803 
61 5.08262 1.56869 3.94029 
37 7.33132 1.93801 4.81762 
17 6.26898 -0.181938 5.33642 
59 4.02406 1.27126 6.73721 
9 4.20366 -1.39913 5.47251 
28 -0.375787 3.31652 6.90958 
8 1.34926 4.46163 3.40144 
44 2.59195 7.00536 3.60723 
4 0.237649 6.54475 4.19923 
18 -0.447839 5.75918 6.8032 
48 -0.884963 4.44384 4.83704 
33 1.6076 7.63062 5.96336 
53 1.97057 5.22555 5.70222 
6 6.34636 3.05013 6.65377 
27 4.13918 3.07219 5.43249 
40 3.15903 3.93893 7.49421 
62 3.40948 6.64803 7.39674 
56 6.0431 4.0312 4.25489 
15 3.73579 4.23041 3.46239 
3 7.28135 7.44858 3.87634 
26 5.1614 6.25007 3.54207 
1 4.46605 5.3684 5.73758 
41 6.65555 6.29181 5.91567 
ITEM: TIMESTEP
200000
ITEM: NUMBER OF ATOMS
63
ITEM: BOX BOUNDS pp pp pp
-1.6191259485950917e+00 7.6191259485951006e+00
-1.6191259485950917e+00 7.6191259485951006e+00
-1.6191259485950917e+00 7.6191259485951006e+00
ITEM: ATOMS id x y z 
25 -1.5553 -0.395803 -0.188066 
34 0.332838 1.22876 -0.744913 
35 0.554424 -1.17439 -1.18314 
11 2.76695 1.47491 -0.115655 
13 0.00948572 -1.09241 1.47844 
5 2.53627 0.126544 2.04848 
10 0.17137 1.41858 1.55416 
60 2.16059 -1.61124 0.532568 
2 3.78572 -0.495252 -0.86083 
7 5.81969 0.268627 -1.56414 
42 5.51219 0.118718 0.811919 
58 7.14179 2.03461 0.0568608 
46 7.21852 0.295182 2.61025 
30 4.63175 2.01878 1.83294 
38 7.01862 2.67707 2.45024 
49 4.90479 2.66376 -0.623268 
29 -0.808779 3.90138 0.826848 
57 1.15144 3.35951 -0.331238 
32 -0.946175 6.38163 -0.24983 
45 0.534343 5.80514 1.59814 
22 2.89254 5.67827 1.72837 
47 1.39474 5.65645 -0.752692 
20 -1.54428 5.19751 2.79395 
51 2.99877 3.51662 1.05477 
52 4.47135 5.1437 -0.361188 
31 4.50561 7.17626 0.992895 
43 5.97274 7.11099 -1.09356 
63 6.84847 7.17686 1.50262 
50 6.83524 4.65337 -1.04051 
23 5.57256 4.47865 1.58626 
36 2.44765 2.22318 3.12039 
12 0.306877 -0.274021 3.66044 
19 2.67334 0.344991 4.59305 
14 0.0770314 2.48986 3.59701 
21 -0.909176 -1.13094 6.08637 
24 -1.46093 1.09984 7.03697 
39 0.287933 1.00151 5.57205 
54 2.01114 0.470547 7.03367 
55 1.71089 2.8136 5.57672 
33 1.55598 -1.55419 5.82738 
16 4.73758 -0.655379 3.07797 
61 5.00116 1.52724 4.08995 
37 7.35004 1.93457 4.76531 
17 6.26968 -0.15768 5.28754 
59 4.13346 1.12387 6.40099 
9 4.22208 -1.32285 5.58526 
6 6.21046 2.97873 6.57452 
28 -0.390785 3.31209 7.07547 
8 1.35753 4.49037 3.40031 
44 2.58188 7.1182 3.61788 
4 0.185821 6.48219 4.18321 
18 -0.279156 5.85776 6.70567 
48 -0.811759 4.28879 4.93203 
53 1.88894 5.23884 5.73431 
27 4.02843 3.18289 5.40401 
40 3.03082 3.86015 7.4843 
62 3.24961 6.69529 7.48509 
56 6.05335 4.077 4.28157 
15 3.78692 4.24253 3.36327 
3 7.27653 7.44182 3.85974 
26 5.20293 6.22424 3.38934 
1 4.29366 5.50805 5.65233 
41 6.64009 6.12287 5.90389 
ITEM: TIMESTEP
210000
ITEM: NUMBER OF ATOMS
63
ITEM: BOX BOUNDS pp pp pp
-1.6137541821593384e+00 7.6137541821593473e+00
-1.6137541821593384e+00 7.6137541821593473e+00
-1.6137541821593384e+00 7.6137541821593473e+00
ITEM: ATOMS id x y z 
25 -1.56478 -0.488122 -0.278686 
34 0.322671 1.02999 -0.821672 
35 0.615614 -1.33202 -1.26114 
11 2.70627 1.39895 0.111273 
13 -0.0798919 -1.08868 1.48286 
5 2.63407 0.0895179 2.13406 
10 0.268546 1.41201 1.50587 
60 2.09274 -1.54896 0.555779 
2 3.78685 -0.511343 -0.845115 
7 5.82179 0.231353 -1.52197 
42 5.53844 0.251803 0.85745 
58 7.18876 2.04008 0.0202814 
46 7.33135 0.329048 2.64653 
30 4.6765 2.2 1.82857 
38 7.0193 2.7205 2.46368 
49 4.85826 2.55865 -0.643291 
29 -0.919402 3.99443 0.815537 
57 1.04662 3.15655 -0.155259 
32 -1.01489 6.2997 -0.210666 
45 0.512198 5.82661 1.6733 
22 2.89779 5.77159 1.73721 
47 1.3801 5.47061 -0.590386 
20 -1.54212 5.20726 2.87071 
51 3.04166 3.63916 0.957133 
52 4.43369 5.14713 -0.449986 
31 4.5349 7.22503 0.920399 
43 5.91815 7.03673 -1.25908 
63 6.81618 7.17514 1.52774 
50 6.77727 4.59379 -1.10225 
23 5.71192 4.60172 1.45327 
36 2.44754 2.28028 3.04677 
12 0.526261 -0.312126 3.62898 
19 2.72097 0.422488 4.59937 
14 0.064011 2.45264 3.56477 
21 -0.983929 -1.17124 6.12602 
24 -1.51125 1.17113 6.98503 
39 0.307769 0.853297 5.6239 
54 2.15873 0.53579 7.03201 
55 1.53288 2.82026 5.56846 
33 1.56151 -1.48342 5.76201 
16 4.8083 -0.582466 3.09802 
61 5.02701 1.64338 4.06232 
37 7.35881 1.91561 4.74595 
17 6.23097 -0.156534 5.27708 
59 4.26223 1.22607 6.37698 
9 4.19192 -1.26189 5.68021 
6 6.08491 2.94799 6.49968 
28 -0.470196 3.35979 7.25574 
8 1.43026 4.48965 3.42363 
44 2.64671 7.15655 3.64254 
4 0.220161 6.47451 4.17125 
18 -0.254391 5.83333 6.77154 
48 -0.73044 4.25493 4.99231 
53 1.89752 5.22836 5.76908 
40 2.89827 3.72584 7.56615 
27 3.84852 3.27238 5.37754 
62 3.05438 6.67885 7.47382 
56 6.04978 4.09379 4.30705 
15 3.89762 4.2453 3.25406 
3 7.30549 7.44714 3.87177 
26 5.19154 6.27923 3.32623 
1 4.30323 5.59617 5.56588 
41 6.70595 6.00256 5.82211 
ITEM: TIMESTEP
220000
ITEM: NUMBER OF ATOMS
63
ITEM: BOX BOUNDS pp pp pp
-1.6083472229398605e+00 7.6083472229398694e+00
-1.6083472229398605e+00 7.6083472229398694e+00
-1.6083472229398605e+00 7.6083472229398694e+00
ITEM: ATOMS id x y z 
25 -1.57977 -0.555029 -0.372334 
34 0.310297 0.918862 -0.833147 
35 0.647118 -1.43886 -1.26003 
11 2.7202 1.36223 0.175241 
13 -0.120585 -1.10018 1.42073 
5 2.82662 -0.030358 2.20192 
10 0.323684 1.26626 1.50969 
60 2.07928 -1.51455 0.581478 
36 2.47292 2.24734 2.86199 
2 3.7648 -0.506584 -0.876446 
7 5.8093 0.212026 -1.55293 
42 5.58003 0.237144 0.860287 
58 7.25651 2.00048 0.0665247 
46 7.36126 0.392611 2.64965 
30 4.73339 2.24398 1.75681 
38 7.02198 2.76742 2.43893 
49 4.88243 2.53612 -0.669962 
29 -1.00461 4.10778 0.796935 
57 0.9345 3.0463 0.0176685 
32 -1.02553 6.30123 -0.212834 
45 0.510475 5.85884 1.79428 
22 2.89775 5.79326 1.76084 
47 1.37586 5.35324 -0.46071 
20 -1.53267 5.23971 2.95365 
51 3.0224 3.67081 0.871455 
52 4.33843 5.13945 -0.567023 
31 4.52481 7.23317 0.900556 
43 5.87411 7.00988 -1.39544 
63 6.80442 7.20526 1.5576 
50 6.70194 4.64273 -1.15734 
23 5.75982 4.72516 1.3295 
12 0.610037 -0.303625 3.53406 
19 2.76407 0.563547 4.62207 
14 0.12477 2.41987 3.49133 
21 -1.1349 -1.21586 6.31743 
24 -1.52899 1.24981 6.978 
39 0.245311 0.707448 5.58911 
54 2.16013 0.671988 7.02314 
55 1.33453 2.78884 5.61597 
33 1.55155 -1.39601 5.74808 
16 4.94523 -0.558888 3.1692 
61 5.02597 1.76281 4.04573 
37 7.40498 1.96936 4.72809 
17 6.21463 -0.077869 5.25699 
59 4.27716 1.34751 6.39175 
9 4.15785 -1.16948 5.83035 
28 -0.466272 3.37876 7.34091 
8 1.52646 4.46129 3.47491 
44 2.75746 7.10198 3.7643 
4 0.242641 6.45188 4.2734 
18 -0.222542 5.76365 6.80365 
48 -0.682654 4.19374 4.99917 
53 1.93239 5.21284 5.78905 
40 2.75458 3.48972 7.57159 
62 2.92315 6.68083 7.49945 
6 6.04458 3.03508 6.42365 
27 3.63429 3.33002 5.25965 
56 6.0276 4.08272 4.27409 
15 3.98379 4.21396 3.11562 
3 7.37238 7.53026 3.89689 
26 5.23428 6.27694 3.34746 
1 4.33738 5.64583 5.62663 
41 6.78469 5.91846 5.72839 
ITEM: TIMESTEP
230000
ITEM: NUMBER OF ATOMS
63
ITEM: BOX BOUNDS pp pp pp
-1.6044953858721342e+00 7.6044953858721431e+00
-1.6044953858721342e+00 7.6044953858721431e+00
-1.6044953858721342e+00 7.6044953858721431e+00
ITEM: ATOMS id x y z 
34 0.276224 0.928503 -0.837043 
35 0.65322 -1.396 -1.24383 
11 2.73216 1.36594 0.213185 
13 -0.176006 -1.17444 1.3986 
10 0.422069 1.12256 1.5319 
60 2.05433 -1.49294 0.626273 
36 2.46989 2.19423 2.73325 
5 3.06625 -0.0959156 2.18492 
25 7.57107 -0.528897 -0.369928 
2 3.69724 -0.469338 -0.878403 
7 5.74906 0.250411 -1.58332 
42 5.5339 0.178708 0.827384 
58 7.30273 1.9639 0.16639 
46 7.39132 0.464289 2.59663 
30 4.79919 2.22458 1.69821 
38 7.02128 2.8702 2.45085 
49 4.96748 2.58607 -0.693393 
29 -1.04949 4.17018 0.77585 
57 0.906724 3.0058 0.210377 
32 -1.04472 6.33136 -0.232769 
45 0.504867 5.79859 1.85148 
22 2.87642 5.81593 1.80637 
47 1.37081 5.30346 -0.423687 
20 -1.56993 5.31196 2.97277 
51 3.06399 3.69941 0.840115 
52 4.29743 5.04938 -0.731901 
31 4.53102 7.13743 0.815153 
43 5.78112 7.00368 -1.44301 
63 6.77687 7.22706 1.60768 
50 6.70538 4.68147 -1.1962 
23 5.72337 4.81282 1.2629 
12 0.780353 -0.424907 3.45623 
19 2.72913 0.597104 4.59311 
14 0.133771 2.44032 3.41993 
21 -1.28718 -1.2455 6.49465 
24 -1.57068 1.37496 6.99332 
39 0.0890313 0.566354 5.50555 
54 2.10901 0.778869 6.98591 
55 1.22446 2.70346 5.62198 
33 1.57894 -1.35201 5.76696 
16 5.09893 -0.585358 3.19312 
61 4.98881 1.763 3.99988 
37 7.39403 2.01023 4.69027 
17 6.25014 -0.00134048 5.27615 
59 4.24591 1.44157 6.34741 
9 4.18055 -1.11697 5.85337 
3 7.49326 -1.57531 3.94066 
28 -0.425127 3.44133 7.4437 
8 1.6031 4.42817 3.52782 
44 2.8564 7.00643 3.89021 
4 0.288504 6.41051 4.33073 
18 -0.17805 5.79337 6.80036 
48 -0.679766 4.17894 4.99412 
53 1.94749 5.16556 5.85868 
40 2.66818 3.28341 7.58835 
62 2.87886 6.70961 7.51791 
6 6.01098 3.12446 6.3694 
27 3.51252 3.3521 5.15651 
56 5.99165 4.09087 4.24605 
15 4.02213 4.17485 3.02449 
26 5.26964 6.26518 3.40663 
1 4.39358 5.61808 5.77461 
41 6.83692 5.90751 5.65956 
ITEM: TIMESTEP
240000
ITEM: NUMBER OF ATOMS
63
ITEM: BOX BOUNDS pp pp pp
-1.5981687308596122e+00 7.5981687308596211e+00
-1.5981687308596122e+00 7.5981687308596211e+00
-1.5981687308596122e+00 7.5981687308596211e+00
ITEM: ATOMS id x y z 
34 0.276747 1.1014 -0.814982 
35 0.639586 -1.2919 -1.2061 
11 2.73506 1.4173 0.201446 
13 -0.24499 -1.29064 1.51367 
10 0.609303 0.93095 1.5405 
60 2.00808 -1.45429 0.688875 
36 2.50648 2.19249 2.70995 
5 3.22961 -0.0988024 2.15337 
25 7.57754 -0.443844 -0.256619 
2 3.64884 -0.416896 -0.905135 
7 5.76888 0.273262 -1.54876 
42 5.42599 0.118834 0.837244 
58 7.28612 1.95615 0.235976 
46 7.41666 0.540592 2.50173 
30 4.82862 2.22841 1.66892 
38 6.9739 2.95718 2.46217 
49 4.98766 2.54405 -0.701919 
29 -1.13981 4.21944 0.73737 
57 0.911522 3.07836 0.518182 
32 -1.09138 6.39386 -0.24249 
45 0.513419 5.67176 1.82964 
22 2.86044 5.83837 1.87293 
47 1.34679 5.30614 -0.464982 
20 -1.58211 5.36199 2.99786 
51 3.152 3.77249 0.787 
52 4.32913 4.94365 -0.941202 
31 4.46778 7.00995 0.632939 
43 5.7628 7.03472 -1.4819 
63 6.6623 7.22549 1.64043 
50 6.75776 4.72457 -1.2917 
23 5.67053 4.83814 1.18924 
12 0.997307 -0.592529 3.41802 
19 2.75119 0.589599 4.5715 
14 0.0912029 2.48043 3.27273 
21 -1.3511 -1.19912 6.59936 
24 -1.55622 1.49885 6.98782 
39 -0.0363016 0.448995 5.34763 
54 2.01735 0.712364 6.91919 
55 1.13892 2.60271 5.55917 
33 1.57654 -1.39146 5.78283 
3 -1.55085 -1.45674 3.94173 
16 5.21888 -0.595542 3.25243 
61 4.96404 1.75815 3.98299 
37 7.37613 2.05745 4.6705 
17 6.27134 0.046942 5.31339 
59 4.19723 1.40249 6.36161 
9 4.20594 -1.14396 5.81446 
28 -0.246918 3.51545 7.53141 
8 1.64286 4.38491 3.58204 
44 2.90056 6.93413 3.96326 
4 0.358875 6.34387 4.30751 
18 -0.195955 5.87222 6.77627 
48 -0.680863 4.18775 5.03245 
53 1.92992 5.09013 5.96481 
40 2.55024 3.22689 7.57869 
62 2.87727 6.7287 7.55344 
6 5.9004 3.14397 6.36305 
27 3.45675 3.30812 5.1395 
56 5.98036 4.10566 4.26955 
15 4.04692 4.15325 3.00626 
26 5.24388 6.24672 3.47117 
1 4.41921 5.52977 5.85663 
41 6.83103 5.97669 5.60107 
ITEM: TIMESTEP
250000
ITEM: NUMBER OF ATOMS
63
ITEM: BOX BOUNDS pp pp pp
-1.5920814926620581e+00 7.5920814926620670e+00
-1.5920814926620581e+00 7.5920814926620670e+00
-1.5920814926620581e+00 7.5920814926620670e+00
ITEM: ATOMS id x y z 
34 0.354067 1.34555 -0.69901 
35 0.651767 -1.1616 -1.13328 
11 2.73163 1.47151 0.206386 
13 -0.31075 -1.48168 1.71973 
10 0.747075 0.727556 1.55015 
60 1.97603 -1.43539 0.752451 
36 2.51322 2.19935 2.73163 
25 -1.46126 -0.324169 -0.0901432 
5 3.27478 -0.0549859 2.13784 
2 3.65186 -0.363908 -0.936917 
7 5.89438 0.297979 -1.49374 
42 5.42503 0.0662114 0.838087 
58 7.20291 2.03241 0.195661 
46 7.40877 0.594458 2.42985 
30 4.80149 2.1831 1.68372 
49 4.91735 2.48452 -0.680508 
29 -1.23116 4.25452 0.635522 
57 0.90726 3.16237 0.927502 
32 -1.13519 6.45862 -0.254854 
45 0.532253 5.46288 1.81304 
22 2.85899 5.86978 1.94011 
47 1.32321 5.31642 -0.459394 
20 -1.59286 5.41707 2.97051 
40 2.4146 3.14838 -1.57743 
38 6.89709 3.03716 2.44048 
51 3.19273 3.85404 0.748348 
52 4.40412 4.83551 -1.11724 
31 4.36903 6.9197 0.478287 
43 5.7986 7.00785 -1.50617 
63 6.52956 7.21706 1.59717 
50 6.87552 4.71212 -1.53321 
23 5.60337 4.83898 1.11875 
12 1.17251 -0.739951 3.40706 
19 2.80409 0.550886 4.56989 
14 0.036925 2.56039 3.0833 
21 -1.33382 -1.0885 6.68988 
24 -1.42246 1.61693 6.9412 
39 -0.0795258 0.369843 5.15893 
54 1.88969 0.672822 6.86345 
55 1.06788 2.50983 5.44504 
33 1.51207 -1.46376 5.81441 
3 -1.49721 -1.35485 3.92828 
16 5.20832 -0.563233 3.32301 
61 4.98482 1.79608 4.02722 
37 7.41524 2.06797 4.60571 
17 6.28671 0.0986946 5.35088 
59 4.13365 1.29272 6.43209 
9 4.25717 -1.18183 5.8297 
28 -0.0558404 3.59319 7.59443 
8 1.6784 4.34897 3.62882 
44 2.93064 6.83147 4.07455 
4 0.347985 6.28743 4.25381 
18 -0.218646 5.9619 6.7596 
48 -0.694201 4.19367 5.09007 
53 1.86784 5.02184 6.02306 
62 2.89174 6.70341 7.5713 
6 5.76575 3.03643 6.35064 
27 3.39855 3.22905 5.18455 
56 6.02416 4.14548 4.33647 
15 4.07407 4.13715 3.04101 
26 5.22759 6.24602 3.4192 
1 4.37202 5.51078 5.73309 
41 6.81678 6.14563 5.48972 
ITEM: TIMESTEP
260000
ITEM: NUMBER OF ATOMS
63
ITEM: BOX BOUNDS pp pp pp
-1.5887414779205917e+00 7.5887414779206006e+00
-1.5887414779205917e+00 7.5887414779206006e+00
-1.5887414779205917e+00 7.5887414779206006e+00
ITEM: ATOMS id x y z 
34 0.360862 1.44801 -0.610247 
35 0.699596 -1.09907 -1.07768 
11 2.68924 1.45766 0.283286 
10 0.661974 0.697905 1.64729 
60 1.97405 -1.508 0.795889 
36 2.46316 2.16161 2.8139 
25 -1.33028 -0.235289 0.0442226 
5 3.29382 -0.0802675 2.11329 
2 3.6294 -0.368149 -0.910663 
7 5.99362 0.34255 -1.44953 
42 5.41382 0.0572334 0.811684 
58 7.10884 2.08551 0.124556 
46 7.37558 0.64759 2.39353 
30 4.73073 2.12821 1.70459 
49 4.81861 2.44193 -0.669406 
13 -0.305279 7.58077 1.78314 
29 -1.21507 4.27153 0.535338 
57 0.955824 3.1713 0.885184 
32 -1.18132 6.50695 -0.304759 
45 0.553058 5.35476 1.87289 
22 2.8814 5.86147 2.05404 
47 1.34375 5.38356 -0.412652 
40 2.46288 3.10847 -1.56775 
20 7.53963 5.43695 2.89303 
38 6.80743 3.10087 2.3982 
51 3.21346 3.91715 0.738178 
52 4.45381 4.76445 -1.22692 
31 4.31743 6.84665 0.449411 
43 5.8139 7.01357 -1.48422 
63 6.50376 7.23787 1.51407 
23 5.58466 4.83058 1.03194 
12 1.30283 -0.871534 3.36446 
19 2.84077 0.475136 4.58969 
14 -0.0018076 2.6354 3.06988 
21 -1.28241 -0.971276 6.74377 
24 -1.23703 1.63459 6.86905 
39 -0.0467813 0.32705 5.00329 
54 1.77597 0.715275 6.8517 
55 1.01119 2.51102 5.40476 
33 1.49156 -1.46307 5.84008 
3 -1.5753 -1.30441 3.8738 
16 5.21071 -0.537716 3.34807 
61 4.98197 1.82867 4.05713 
37 7.41003 2.07769 4.55743 
17 6.28453 0.159247 5.39054 
59 4.08188 1.20472 6.4832 
9 4.3238 -1.2184 5.83493 
6 5.80997 2.83947 6.34903 
28 -0.00602396 3.68337 7.54876 
8 1.71281 4.33877 3.69778 
44 2.91399 6.70812 4.20979 
4 0.280155 6.28634 4.24952 
18 -0.207595 6.06566 6.74296 
48 -0.742433 4.2388 5.14735 
53 1.83062 4.97669 6.07183 
62 2.92859 6.67855 7.51637 
50 6.91887 4.71244 7.41581 
27 3.383 3.1787 5.24205 
56 6.08584 4.20135 4.42935 
15 4.12899 4.07245 3.07995 
26 5.19021 6.23692 3.30911 
1 4.39286 5.46633 5.69126 
41 6.76369 6.31419 5.46526 
ITEM: TIMESTEP
270000
ITEM: NUMBER OF ATOMS
63
ITEM: BOX BOUNDS pp pp pp
-1.5862274437805199e+00 7.5862274437805288e+00
-1.5862274437805199e+00 7.5862274437805288e+00
-1.5862274437805199e+00 7.5862274437805288e+00
ITEM: ATOMS id x y z 
34 0.311604 1.40402 -0.535962 
35 0.735277 -1.09431 -1.04167 
11 2.62213 1.41143 0.31545 
10 0.605154 0.720865 1.75629 
60 1.98467 -1.53567 0.836693 
36 2.4289 2.15614 2.8487 
25 -1.39516 -0.243692 0.0356957 
14 -0.0510437 2.86954 2.98051 
5 3.31431 -0.0841936 2.12157 
2 3.60131 -0.381414 -0.897061 
7 5.99745 0.384951 -1.47686 
42 5.38811 0.0427111 0.788103 
58 7.07563 2.12766 0.0716644 
46 7.28488 0.713192 2.3726 
30 4.69516 2.09506 1.69718 
49 4.7386 2.40652 -0.675982 
13 -0.300382 7.55465 1.72016 
29 -1.17805 4.27843 0.510465 
57 0.995062 3.19357 0.837459 
32 -1.17996 6.51339 -0.336708 
45 0.559421 5.31905 1.9319 
22 2.87762 5.85281 2.13714 
47 1.32864 5.44286 -0.401093 
40 2.44867 3.11338 -1.50613 
20 7.51037 5.43449 2.89069 
38 6.73663 3.13476 2.38886 
51 3.2341 3.93189 0.781169 
52 4.46157 4.76089 -1.17456 
31 4.27468 6.7949 0.476454 
43 5.8076 7.07526 -1.41044 
63 6.47992 7.23016 1.4973 
23 5.64287 4.83279 0.981519 
12 1.37809 -1.01125 3.29697 
19 2.82304 0.416547 4.58164 
21 -1.20505 -0.911114 6.71379 
24 -1.0959 1.58039 6.78441 
39 0.00311077 0.348934 4.78008 
54 1.72972 0.779416 6.85439 
55 1.00514 2.53484 5.36837 
33 1.47782 -1.38836 5.84274 
3 -1.57677 -1.28199 3.77923 
16 5.21293 -0.5717 3.35192 
61 4.97274 1.79373 4.05619 
37 7.45407 2.09321 4.50603 
17 6.32537 0.171427 5.36142 
59 4.06461 1.15648 6.46377 
9 4.39604 -1.25337 5.799 
6 5.90206 2.72272 6.39359 
28 0.0143502 3.67692 7.54509 
8 1.76052 4.3559 3.76956 
44 2.89093 6.59099 4.33966 
4 0.235638 6.30916 4.27716 
18 -0.20132 6.08647 6.72512 
48 -0.734309 4.26297 5.14989 
53 1.84238 4.96597 6.12912 
62 2.96312 6.67719 7.47527 
50 6.90561 4.74382 7.35947 
27 3.41125 3.16323 5.29396 
56 6.09423 4.18861 4.50376 
15 4.16598 4.02747 3.09255 
26 5.15944 6.20477 3.30423 
1 4.4406 5.42579 5.75215 
41 6.73361 6.42922 5.45904 
ITEM: TIMESTEP
280000
ITEM: NUMBER OF ATOMS
63
ITEM: BOX BOUNDS pp pp pp
-1.5835846156640230e+00 7.5835846156640319e+00
-1.5835846156640230e+00 7.5835846156640319e+00
-1.5835846156640230e+00 7.5835846156640319e+00
ITEM: ATOMS id x y z 
34 0.240255 1.35178 -0.410151 
35 0.704244 -1.0863 -1.02274 
11 2.57606 1.39031 0.323063 
10 0.564071 0.777342 1.95997 
60 2.03807 -1.47988 0.795871 
36 2.40036 2.20691 2.86311 
25 -1.46613 -0.282417 -0.0235527 
13 -0.272708 -1.55818 1.6443 
5 3.31441 -0.0198094 2.14116 
2 3.6041 -0.351099 -0.953723 
7 6.01835 0.39969 -1.56814 
42 5.35132 0.000778356 0.709573 
58 7.01696 2.15041 0.00644117 
46 7.20413 0.720094 2.30118 
30 4.66989 2.05096 1.68575 
49 4.67281 2.37611 -0.701089 
14 -0.108165 3.06848 2.91731 
29 -1.1785 4.2586 0.585287 
57 1.01956 3.2159 0.810544 
32 -1.19288 6.46902 -0.330697 
45 0.577188 5.37334 1.94963 
22 2.89111 5.91548 2.1989 
47 1.31899 5.44235 -0.383333 
40 2.41757 3.12085 -1.46506 
20 7.51791 5.41179 2.9422 
38 6.65214 3.1376 2.39244 
51 3.24798 3.94467 0.846431 
52 4.42083 4.77733 -1.10312 
31 4.25234 6.79099 0.458339 
43 5.82515 7.1027 -1.3958 
63 6.47222 7.19956 1.51362 
23 5.6367 4.86865 1.00733 
12 1.47793 -1.18104 3.23641 
19 2.75847 0.41533 4.56671 
21 -1.12643 -0.921138 6.62102 
24 -0.977062 1.52255 6.71799 
39 0.0923317 0.374385 4.57805 
54 1.66638 0.834624 6.88425 
55 1.04985 2.52731 5.27288 
33 1.42136 -1.343 5.84136 
3 -1.52897 -1.28352 3.71674 
16 5.20095 -0.604973 3.33293 
61 4.98313 1.77239 4.06193 
37 7.49742 2.09222 4.45431 
17 6.40339 0.15075 5.28137 
59 4.04891 1.149 6.40451 
9 4.44805 -1.23469 5.77503 
6 5.96975 2.6725 6.42707 
28 -0.0448343 3.6341 7.57358 
8 1.79184 4.3901 3.7934 
44 2.91408 6.52448 4.47536 
4 0.239594 6.28019 4.32055 
18 -0.192977 6.05431 6.75217 
48 -0.725128 4.24271 5.18968 
53 1.82777 4.91029 6.18247 
62 2.93064 6.70133 7.44382 
50 6.85798 4.75805 7.3711 
27 3.4619 3.19704 5.33282 
56 6.10093 4.16131 4.55381 
15 4.17971 4.00698 3.11657 
26 5.1702 6.1723 3.37893 
1 4.51848 5.42798 5.84675 
41 6.76736 6.44382 5.44119 
ITEM: TIMESTEP
290000
ITEM: NUMBER OF ATOMS
63
ITEM: BOX BOUNDS pp pp pp
-1.5824496655450941e+00 7.5824496655451030e+00
-1.5824496655450941e+00 7.5824496655451030e+00
-1.5824496655450941e+00 7.5824496655451030e+00
ITEM: ATOMS id x y z 
34 0.154931 1.32399 -0.28509 
35 0.649043 -1.10377 -1.0195 
11 2.51859 1.3519 0.330703 
10 0.577846 0.835016 2.08633 
60 2.1039 -1.42919 0.734995 
36 2.43325 2.25598 2.87487 
25 -1.56428 -0.326843 -0.119022 
13 -0.231473 -1.41207 1.55462 
5 3.28561 0.0133176 2.17983 
2 3.58244 -0.323741 -1.0414 
42 5.28759 -0.0188481 0.659422 
58 6.94498 2.15157 -0.0556315 
46 7.1696 0.693975 2.23327 
30 4.65313 2.04488 1.65047 
49 4.61631 2.35682 -0.741675 
14 -0.12049 3.16771 2.93828 
29 -1.19627 4.2206 0.642735 
57 1.00401 3.23848 0.839399 
32 -1.20946 6.42091 -0.264693 
45 0.616897 5.50143 1.92031 
22 2.99887 6.01762 2.23371 
47 1.37121 5.44638 -0.388592 
40 2.39173 3.11858 -1.42961 
28 -0.077187 3.59528 -1.51661 
20 7.5389 5.371 2.94711 
38 6.61831 3.10416 2.39821 
51 3.20969 3.96178 0.916108 
52 4.32302 4.76957 -1.05214 
31 4.28508 6.80021 0.384138 
43 5.86341 7.09464 -1.44372 
63 6.48843 7.2157 1.54418 
23 5.62135 4.8928 1.04692 
12 1.5133 -1.31065 3.21138 
19 2.70111 0.412228 4.55878 
21 -1.11236 -0.945245 6.53798 
24 -0.86483 1.46401 6.69439 
39 0.12152 0.354643 4.50983 