LAMMPS (8 Feb 2019)
OMP_NUM_THREADS environment is not set. Defaulting to 1 thread. (src/comm.cpp:87)
  using 1 OpenMP thread(s) per MPI task
# This simulation first equalibrates the system in npt to get zero pressure volume
# and then applies a force in the x direction and computes the resulting
# strain tensor

# ----------------- Initializating the configuration --------------------------

clear
OMP_NUM_THREADS environment is not set. Defaulting to 1 thread. (src/comm.cpp:87)
  using 1 OpenMP thread(s) per MPI task
units metal
dimension 3
boundary p p p
atom_style atomic


# --------------------- Create Atom-----------------------
read_data	data.Cu-Ni
  orthogonal box = (-0.02 -0.02 -0.02) to (6.02 6.02 6.02)
  1 by 1 by 1 MPI processor grid
  reading atoms ...
  63 atoms
  reading velocities ...
  63 velocities

# ------------ Define Interatomic Potential ----------------

pair_style eam/alloy
pair_coeff * * CuNi.eam.alloy Ni Cu
Reading potential file CuNi.eam.alloy with DATE: 2014-07-11
neighbor .1 bin
neigh_modify delay 10 check yes

# ------------- Define Settings ----------------

compute 	pepa all pe/atom
compute 	eatoms all reduce sum c_pepa


# ---- Minimizin the pe per atom -----


compute 	ens_temp all temp
# Compute the stress tensor for each atom
compute 	ensprs all pressure ens_temp ke pair improper fix #compute id group_id compute_id temp_id keywords...

thermo 		1000
thermo_style	custom step temp pe ke etotal press lx ly lz
timestep 	0.00001


fix 		start all nve
variable 	tcontrol internal 1000.0
fix 		tstat all langevin v_tcontrol 1000.0 1.0 3884739

run 		150000
Neighbor list info ...
  update every 1 steps, delay 10 steps, check yes
  max neighbors/atom: 2000, page size: 100000
  master list distance cutoff = 6.49433
  ghost atom cutoff = 6.49433
  binsize = 3.24717, bins = 2 2 2
  1 neighbor lists, perpetual/occasional/extra = 1 0 0
  (1) pair eam/alloy, perpetual
      attributes: half, newton on
      pair build: half/bin/atomonly/newton
      stencil: half/bin/3d/newton
      bin: standard
Per MPI rank memory allocation (min/avg/max) = 3.185 | 3.185 | 3.185 Mbytes
Step Temp PotEng KinEng TotEng Press Lx Ly Lz 
       0            0    26532.066            0    26532.066   -88593.858         6.04         6.04         6.04 
    1000    2546456.1    5706.8989    20407.627    26114.526 1.3810199e+08         6.04         6.04         6.04 
    2000    2951501.4    2005.0015    23653.713    25658.714 1.2674576e+08         6.04         6.04         6.04 
    3000    2852607.3    2325.9777    22861.163     25187.14 1.2394362e+08         6.04         6.04         6.04 
    4000    2822919.1    2106.3057    22623.238    24729.544 1.2348849e+08         6.04         6.04         6.04 
    5000    2773905.7    2056.4302    22230.438    24286.868 1.1988188e+08         6.04         6.04         6.04 
    6000    2738460.5    1904.6478    21946.375    23851.023 1.1798301e+08         6.04         6.04         6.04 
    7000      2655350    2139.1414    21280.317    23419.459 1.149704e+08         6.04         6.04         6.04 
    8000      2622742    1978.9503    21018.993    22997.943 1.1254081e+08         6.04         6.04         6.04 
    9000    2526751.1    2346.2286    20249.709    22595.938 1.1057896e+08         6.04         6.04         6.04 
   10000    2533346.6    1896.1581    20302.567    22198.725 1.1025366e+08         6.04         6.04         6.04 
   11000    2420093.9    2412.3894    19394.944    21807.334 1.0844145e+08         6.04         6.04         6.04 
   12000    2375495.8    2398.5695     19037.53    21436.099 1.0658719e+08         6.04         6.04         6.04 
   13000    2405117.7    1760.4228    19274.924    21035.346 1.0447931e+08         6.04         6.04         6.04 
   14000    2329570.1    1987.8895    18669.475    20657.365 1.0388477e+08         6.04         6.04         6.04 
   15000    2288173.3    1952.5097    18337.716    20290.226 1.0036879e+08         6.04         6.04         6.04 
   16000    2261742.7    1794.8326    18125.897     19920.73     98481973         6.04         6.04         6.04 
   17000    2102544.2    2721.2359     16850.06    19571.296     93636795         6.04         6.04         6.04 
   18000    2150004.3    2005.7602    17230.412    19236.172     95493000         6.04         6.04         6.04 
   19000      2185637    1370.8157    17515.976    18886.792     93481760         6.04         6.04         6.04 
   20000    2012986.9    2416.0799    16132.336    18548.416     92338640         6.04         6.04         6.04 
   21000    1953006.4    2562.2422    15651.645    18213.887     88536500         6.04         6.04         6.04 
   22000    1936244.6    2372.9458    15517.314     17890.26     90415401         6.04         6.04         6.04 
   23000    1866120.7    2632.1482    14955.332     17587.48     86008198         6.04         6.04         6.04 
   24000    1933927.4    1776.3367    15498.743     17275.08     87122690         6.04         6.04         6.04 
   25000      1909677    1660.6467    15304.397    16965.044     84570906         6.04         6.04         6.04 
   26000    1820304.9    2078.1587    14588.158    16666.317     81602175         6.04         6.04         6.04 
   27000    1733182.5    2471.6888    13889.948    16361.637     80710736         6.04         6.04         6.04 
   28000    1753572.8     2017.933    14053.358    16071.291     79218164         6.04         6.04         6.04 
   29000    1742176.2    1842.8313    13962.024    15804.856     79069982         6.04         6.04         6.04 
   30000    1706070.8    1837.6711    13672.672    15510.343     77495644         6.04         6.04         6.04 
   31000    1611447.4    2337.5716    12914.348    15251.919     75005932         6.04         6.04         6.04 
   32000    1627953.4    1934.5709    13046.629    14981.199     74391818         6.04         6.04         6.04 
   33000    1572174.9    2128.5771    12599.613     14728.19     74389857         6.04         6.04         6.04 
   34000    1621033.4    1489.5267    12991.171    14480.697     72341349         6.04         6.04         6.04 
   35000    1557744.2    1748.6309    12483.963    14232.594     71672570         6.04         6.04         6.04 
   36000    1534738.7    1688.3429    12299.594    13987.937     70452050         6.04         6.04         6.04 
   37000    1399514.6     2535.268     11215.89    13751.158     68257574         6.04         6.04         6.04 
   38000      1448370    1910.4727    11607.424    13517.897     68667568         6.04         6.04         6.04 
   39000    1440845.3    1743.2253     11547.12    13290.345     66542875         6.04         6.04         6.04 
   40000    1341831.7    2323.3362    10753.612    13076.948     67462540         6.04         6.04         6.04 
   41000    1419590.1    1493.7148    11376.778    12870.493     65089020         6.04         6.04         6.04 
   42000    1271139.7    2474.0534    10187.077    12661.131     61340159         6.04         6.04         6.04 
   43000    1323919.1    1828.5997    10610.058    12438.658     61935278         6.04         6.04         6.04 
   44000    1283794.4    1927.9742    10288.494    12216.468     61861941         6.04         6.04         6.04 
   45000    1342891.2    1237.6536    10762.104    11999.757     59757140         6.04         6.04         6.04 
   46000    1267718.3    1633.8162    10159.658    11793.474     59093848         6.04         6.04         6.04 
   47000    1238359.3    1665.2633    9924.3708    11589.634     58478112         6.04         6.04         6.04 
   48000    1189896.6    1858.9619    9535.9847    11394.947     57204522         6.04         6.04         6.04 
   49000    1175547.2    1795.0216     9420.987    11216.009     56617044         6.04         6.04         6.04 
   50000    1174167.5    1612.6379    9409.9299    11022.568     55167371         6.04         6.04         6.04 
   51000    1158802.9     1552.732    9286.7959    10839.528     54488164         6.04         6.04         6.04 
   52000      1152581    1413.1515    9236.9332    10650.085     54349875         6.04         6.04         6.04 
   53000    1119606.3    1497.8487    8972.6697    10470.518     53416768         6.04         6.04         6.04 
   54000    1042946.7    1937.3885    8358.3092    10295.698     53054651         6.04         6.04         6.04 
   55000    1072384.8    1527.3197    8594.2301     10121.55     52218585         6.04         6.04         6.04 
   56000    1044229.2    1585.3068    8368.5875    9953.8943     49797521         6.04         6.04         6.04 
   57000      1017027    1636.8211    8150.5858    9787.4068     49273584         6.04         6.04         6.04 
   58000    1055001.5    1167.1203    8454.9182    9622.0385     49650160         6.04         6.04         6.04 
   59000    1026630.3    1230.5245    8227.5479    9458.0725     48491436         6.04         6.04         6.04 
   60000    951544.77    1671.2075    7625.8026      9297.01     47302508         6.04         6.04         6.04 
   61000    950957.36    1523.7086    7621.0949    9144.8035     47240951         6.04         6.04         6.04 
   62000    935180.15    1501.5733    7494.6543    8996.2277     46008044         6.04         6.04         6.04 
   63000    941187.98    1301.9883    7542.8019    8844.7902     45050209         6.04         6.04         6.04 
   64000    883574.15    1617.6397    7081.0772    8698.7169     45150509         6.04         6.04         6.04 
   65000    869814.68    1585.9819    6970.8071     8556.789     44290621         6.04         6.04         6.04 
   66000     899811.5    1205.0791    7211.2054    8416.2845     43259153         6.04         6.04         6.04 
   67000    876219.14    1260.6142    7022.1332    8282.7474     43142992         6.04         6.04         6.04 
   68000    808214.63     1668.511    6477.1363    8145.6473     41077718         6.04         6.04         6.04 
   69000    810385.82    1526.9689    6494.5365    8021.5054     41659085         6.04         6.04         6.04 
   70000    815295.78    1364.4795    6533.8855     7898.365     40755751         6.04         6.04         6.04 
   71000    769705.01    1602.0542    6168.5152    7770.5694     41639224         6.04         6.04         6.04 
   72000    763863.07    1528.3609    6121.6972    7650.0581     40410310         6.04         6.04         6.04 
   73000    778261.02    1298.3979    6237.0842    7535.4821     39454130         6.04         6.04         6.04 
   74000    771111.99    1226.6239     6179.791    7406.4148     38191762         6.04         6.04         6.04 
   75000    714057.03    1567.5114    5722.5451    7290.0565     38813678         6.04         6.04         6.04 
   76000    743640.21    1216.6958    5959.6286    7176.3244     37957285         6.04         6.04         6.04 
   77000    756741.44    989.82427    6064.6235    7054.4478     37179605         6.04         6.04         6.04 
   78000    657455.67    1680.2775    5268.9345     6949.212     36431592         6.04         6.04         6.04 
   79000    665404.77    1516.1531    5332.6397    6848.7928     35520183         6.04         6.04         6.04 
   80000    659060.18    1455.9565    5281.7933    6737.7497     35057688         6.04         6.04         6.04 
   81000    705073.58    982.21451    5650.5506    6632.7651     35123051         6.04         6.04         6.04 
   82000    659957.95    1233.5661    5288.9882    6522.5543     34638181         6.04         6.04         6.04 
   83000    676420.09    991.57333    5420.9178    6412.4912     33344152         6.04         6.04         6.04 
   84000    622162.06    1323.8126     4986.087    6309.8996     33167854         6.04         6.04         6.04 
   85000    619013.11    1243.7682    4960.8509    6204.6191     32412556         6.04         6.04         6.04 
   86000    623930.52    1110.8883    5000.2597     6111.148     32567715         6.04         6.04         6.04 
   87000    561790.67    1520.4594    4502.2629    6022.7222     31187136         6.04         6.04         6.04 
   88000    586386.76    1229.4914    4699.3791    5928.8705     32415536         6.04         6.04         6.04 
   89000    554714.29    1396.1795    4445.5518    5841.7313     30300613         6.04         6.04         6.04 
   90000    548528.36    1353.5099     4395.977    5749.4869     30613857         6.04         6.04         6.04 
   91000    531707.67    1404.4265    4261.1739    5665.6004     29295110         6.04         6.04         6.04 
   92000    553220.25    1142.3011    4433.5785    5575.8796     29561759         6.04         6.04         6.04 
   93000    537499.12    1188.2771    4307.5873    5495.8644     28938284         6.04         6.04         6.04 
   94000    509732.27    1325.0465    4085.0601    5410.1066     27816185         6.04         6.04         6.04 
   95000    511099.45    1234.9558    4096.0169    5330.9726     28119484         6.04         6.04         6.04 
   96000    495921.11    1274.6988    3974.3758    5249.0746     27909125         6.04         6.04         6.04 
   97000    502657.51    1131.4764    4028.3621    5159.8385     28191561         6.04         6.04         6.04 
   98000    517790.62    928.29942    4149.6408    5077.9403     26924297         6.04         6.04         6.04 
   99000    441638.23    1457.2707    3539.3458    4996.6164     26519273         6.04         6.04         6.04 
  100000    513716.08    792.64635    4116.9869    4909.6333     26686540         6.04         6.04         6.04 
  101000    461625.43    1133.3729    3699.5257    4832.8986     26220948         6.04         6.04         6.04 
  102000    459010.94    1074.8663    3678.5729    4753.4392     25442704         6.04         6.04         6.04 
  103000    458628.91    1003.3354    3675.5113    4678.8467     25056733         6.04         6.04         6.04 
  104000     466316.2    866.39508    3737.1182    4603.5133     24630204         6.04         6.04         6.04 
  105000    458421.88    853.84063    3673.8521    4527.6927     24630189         6.04         6.04         6.04 
  106000    457648.51    792.90376    3667.6542    4460.5579     24275635         6.04         6.04         6.04 
  107000    440838.33    853.77509    3532.9353    4386.7104     24028219         6.04         6.04         6.04 
  108000    438251.78    809.05834    3512.2063    4321.2647     23286629         6.04         6.04         6.04 
  109000    389874.95    1135.4046    3124.5081    4259.9127     24275941         6.04         6.04         6.04 
  110000    407693.34    926.86945     3267.307    4194.1765     23125919         6.04         6.04         6.04 
  111000    382299.44    1069.7974     3063.797    4133.5944     22033061         6.04         6.04         6.04 
  112000    378957.35    1033.2967    3037.0131    4070.3098     21806893         6.04         6.04         6.04 
  113000    367650.78    1068.4257    2946.4008    4014.8265     21988231         6.04         6.04         6.04 
  114000    376339.53    935.21087    3016.0335    3951.2444     21793784         6.04         6.04         6.04 
  115000     344443.5    1129.8812    2760.4146    3890.2959     21364015         6.04         6.04         6.04 
  116000    347344.88    1051.2481    2783.6667    3834.9147     21626196         6.04         6.04         6.04 
  117000    355644.06    929.31109    2850.1774    3779.4885     21496099         6.04         6.04         6.04 
  118000    347804.69    928.83426    2787.3516    3716.1859     20966858         6.04         6.04         6.04 
  119000    366770.78    721.13057    2939.3483    3660.4789     20761995         6.04         6.04         6.04 
  120000    355076.49     760.1447    2845.6288    3605.7735     20306122         6.04         6.04         6.04 
  121000    331579.34    891.79077    2657.3196    3549.1103     20313399         6.04         6.04         6.04 
  122000     337955.4    785.65242    2708.4182    3494.0706     19154581         6.04         6.04         6.04 
  123000    340590.45     710.3228    2729.5358    3439.8586     19450238         6.04         6.04         6.04 
  124000    320384.05    816.02019    2567.5991    3383.6193     19758088         6.04         6.04         6.04 
  125000    342447.93    591.58713    2744.4219     3336.009     18427234         6.04         6.04         6.04 
  126000    302485.48    853.68466    2424.1577    3277.8423     18833567         6.04         6.04         6.04 
  127000    324952.31    626.05714    2604.2098    3230.2669     18238720         6.04         6.04         6.04 
  128000    311166.54    683.40846    2493.7288    3177.1372     18301615         6.04         6.04         6.04 
  129000    304451.67    689.83754     2439.915    3129.7525     18066805         6.04         6.04         6.04 
  130000    291529.87    743.30752     2336.358    3079.6655     18459087         6.04         6.04         6.04 
  131000    289368.93    715.96071    2319.0399    3035.0006     16807672         6.04         6.04         6.04 
  132000    260943.17    896.66753    2091.2322    2987.8997     17147790         6.04         6.04         6.04 
  133000    283091.12     674.8602    2268.7288     2943.589     16927046         6.04         6.04         6.04 
  134000     261399.9     804.5722    2094.8925    2899.4647     16379028         6.04         6.04         6.04 
  135000    265202.49    731.81259     2125.367    2857.1796     17004317         6.04         6.04         6.04 
  136000    247503.23    830.76795    1983.5228    2814.2908     16423179         6.04         6.04         6.04 
  137000    246374.38    798.41486     1974.476    2772.8909     15852278         6.04         6.04         6.04 
  138000     241566.6    796.46235    1935.9459    2732.4083     15852769         6.04         6.04         6.04 
  139000     248964.4    694.87527    1995.2328    2690.1081     15411792         6.04         6.04         6.04 
  140000    252680.87    627.01757    2025.0171    2652.0346     15720852         6.04         6.04         6.04 
  141000    227750.79    791.08413    1825.2242    2616.3084     15535205         6.04         6.04         6.04 
  142000    228013.43    754.33885     1827.329    2581.6679     15071999         6.04         6.04         6.04 
  143000     237877.5    644.44439     1906.381    2550.8254     15192659         6.04         6.04         6.04 
  144000     233167.7    643.25138     1868.636    2511.8874     14807251         6.04         6.04         6.04 
  145000    230480.81    627.01087     1847.103    2474.1139     14135065         6.04         6.04         6.04 
  146000     210282.2    755.00414    1685.2287    2440.2329     14182153         6.04         6.04         6.04 
  147000     229221.3    570.26106    1837.0091    2407.2701     14156457         6.04         6.04         6.04 
  148000    216293.63    635.14592    1733.4051     2368.551     13808850         6.04         6.04         6.04 
  149000    224832.59    535.52007    1801.8373    2337.3574     14174588         6.04         6.04         6.04 
  150000    216124.83    572.82482    1732.0523    2304.8771     13281199         6.04         6.04         6.04 
Loop time of 69.4097 on 1 procs for 150000 steps with 63 atoms

Performance: 1.867 ns/day, 12.854 hours/ns, 2161.082 timesteps/s
100.0% CPU use with 1 MPI tasks x 1 OpenMP threads

MPI task timing breakdown:
Section |  min time  |  avg time  |  max time  |%varavg| %total
---------------------------------------------------------------
Pair    | 65.298     | 65.298     | 65.298     |   0.0 | 94.08
Neigh   | 2.4115     | 2.4115     | 2.4115     |   0.0 |  3.47
Comm    | 1.0689     | 1.0689     | 1.0689     |   0.0 |  1.54
Output  | 0.0025651  | 0.0025651  | 0.0025651  |   0.0 |  0.00
Modify  | 0.45166    | 0.45166    | 0.45166    |   0.0 |  0.65
Other   |            | 0.1769     |            |       |  0.25

Nlocal:    63 ave 63 max 63 min
Histogram: 1 0 0 0 0 0 0 0 0 0
Nghost:    1875 ave 1875 max 1875 min
Histogram: 1 0 0 0 0 0 0 0 0 0
Neighs:    10322 ave 10322 max 10322 min
Histogram: 1 0 0 0 0 0 0 0 0 0

Total # of neighbors = 10322
Ave neighs/atom = 163.841
Neighbor list builds = 10067
Dangerous builds = 3297

unfix 		start
unfix		tstat

thermo  	1000
thermo_style 	custom step temp press pe ke etotal lx ly lz

#dump            1 all custom/gz 1000 dump.atom.gz id type x y z vx vy vz
dump            2 all custom 10000 dump.atom id type x y z vx vy vz
dump 		3 all custom 10000 dump.xyz id x y z

fix		2 all npt temp 1.0 1.0 1.0 iso 0.0 0.0 1.0

run 		1000000
Per MPI rank memory allocation (min/avg/max) = 5.691 | 5.691 | 5.691 Mbytes
Step Temp Press PotEng KinEng TotEng Lx Ly Lz 
  150000    216124.83     13281199    572.82482    1732.0523    2304.8771         6.04         6.04         6.04 
  151000     12718.24    39577.112   -119.57169    101.92562   -17.646073    11.457254    11.457254    11.457254 
  152000    4468.4857   -17390.397   -130.52768    35.811021   -94.716655    11.321753    11.321753    11.321753 
  153000    2398.7701   -5435.0133   -138.71107    19.224053   -119.48702    10.950958    10.950958    10.950958 
  154000     2155.072   -5556.4278   -151.39352    17.271025   -134.12249    10.699059    10.699059    10.699059 
  155000    1982.9214   -4505.6404    -163.0232    15.891388   -147.13181     10.46025     10.46025     10.46025 
  156000      1669.68   -3644.4062   -171.46697    13.381031   -158.08594    10.270892    10.270892    10.270892 
  157000    1427.8572   -2680.0207   -178.32166    11.443032   -166.87863    10.123259    10.123259    10.123259 
  158000     1254.725   -2250.5627   -184.19024    10.055528   -174.13471    10.004252    10.004252    10.004252 
  159000    1121.9573   -1531.4997   -189.31644    8.9915104   -180.32493    9.9027639    9.9027639    9.9027639 
  160000    985.35377   -669.78408   -193.50103    7.8967523   -185.60428    9.8171199    9.8171199    9.8171199 
  161000     878.1453   -780.40068   -197.12204    7.0375697   -190.08447    9.7459106    9.7459106    9.7459106 
  162000    787.11773   -1124.3013   -200.26844     6.308063   -193.96038    9.6857929    9.6857929    9.6857929 
  163000    686.73859   -1405.6505   -202.77803    5.5036116   -197.27442    9.6335537    9.6335537    9.6335537 
  164000     592.8392   -542.25486   -204.78455    4.7510899   -200.03346    9.5875498    9.5875498    9.5875498 
  165000    524.55213    -461.1166   -206.54428    4.2038285   -202.34045    9.5499867    9.5499867    9.5499867 
  166000    484.10196   -647.76944   -208.22639    3.8796555   -204.34673    9.5179343    9.5179343    9.5179343 
  167000    457.93657   -577.61578    -209.8395    3.6699627   -206.16953    9.4832327    9.4832327    9.4832327 
  168000    427.01234   -382.76872   -211.26603     3.422132    -207.8439    9.4573722    9.4573722    9.4573722 
  169000    386.50446   -208.91131   -212.44412    3.0974966   -209.34662    9.4316032    9.4316032    9.4316032 
  170000    345.32699   -499.64616   -213.42734     2.767495   -210.65984    9.4138126    9.4138126    9.4138126 
  171000    313.59429   -768.04016   -214.31983    2.5131851   -211.80664    9.3970276    9.3970276    9.3970276 
  172000    291.80859    -467.9038   -215.16984    2.3385917   -212.83125    9.3801072    9.3801072    9.3801072 
  173000    275.21028   -367.94524   -215.97316    2.2055707   -213.76759    9.3656101    9.3656101    9.3656101 
  174000    259.95507   -415.33031   -216.71528    2.0833135   -214.63197    9.3540231    9.3540231    9.3540231 
  175000    244.35322   -316.26183   -217.38835    1.9582782   -215.43007     9.341831     9.341831     9.341831 
  176000    228.29759   -228.42962   -217.99256    1.8296063   -216.16296    9.3315303    9.3315303    9.3315303 
  177000     212.9786   -338.21322   -218.53995     1.706838   -216.83311    9.3226376    9.3226376    9.3226376 
  178000    199.74754   -237.77674   -219.04806    1.6008025   -217.44726    9.3129941    9.3129941    9.3129941 
  179000    187.68838   -194.48924   -219.51694    1.5041589   -218.01278    9.3051069    9.3051069    9.3051069 
  180000    175.03123    -308.3221   -219.93514    1.4027228   -218.53242    9.2971595    9.2971595    9.2971595 
  181000     160.8751   -238.25569   -220.29345    1.2892738   -219.00418    9.2902466    9.2902466    9.2902466 
  182000    145.56407   -78.599423   -220.59191    1.1665692   -219.42534    9.2849158    9.2849158    9.2849158 
  183000    129.95826   -94.541614   -220.83671    1.0415023   -219.79521    9.2799533    9.2799533    9.2799533 
  184000     114.2621       53.668   -221.03048   0.91571117   -220.11477    9.2761805    9.2761805    9.2761805 
  185000    99.245772     126.1061   -221.18157   0.79536842    -220.3862    9.2725351    9.2725351    9.2725351 
  186000    86.415692    65.273785   -221.30756    0.6925465   -220.61501    9.2698692    9.2698692    9.2698692 
  187000    77.075577   -56.746824   -221.42787   0.61769362   -220.81018    9.2675336    9.2675336    9.2675336 
  188000    71.464493   -7.1913751   -221.55494   0.57272567   -220.98222    9.2646809    9.2646809    9.2646809 
  189000    68.703653   -60.245186   -221.69088   0.55059994   -221.14028    9.2623618    9.2623618    9.2623618 
  190000    67.737051   -111.69681   -221.83343   0.54285346   -221.29058    9.2590276    9.2590276    9.2590276 
  191000    67.792018     -111.899   -221.98014   0.54329398   -221.43684    9.2559102    9.2559102    9.2559102 
  192000    68.461626    -187.3774   -222.13008    0.5486603   -221.58142    9.2535169    9.2535169    9.2535169 
  193000    69.153935   -14.554634   -222.27976   0.55420855   -221.72555    9.2501014    9.2501014    9.2501014 
  194000    69.553607   -12.423715   -222.42665   0.55741158   -221.86924    9.2477764    9.2477764    9.2477764 
  195000    69.367212    106.27229   -222.56778   0.55591778   -222.01186    9.2454651    9.2454651    9.2454651 
  196000    68.584201    95.276492   -222.70201   0.54964264   -222.15237    9.2440131    9.2440131    9.2440131 
  197000    67.450543   -7.7720993    -222.8305   0.54055735   -222.28994     9.242431     9.242431     9.242431 
  198000    65.765191    -50.04657   -222.95085   0.52705072    -222.4238    9.2413343    9.2413343    9.2413343 
  199000    63.526291     63.68013    -223.0619   0.50910789   -222.55279    9.2397987    9.2397987    9.2397987 
  200000    60.914249    121.95688   -223.16415   0.48817465   -222.67597    9.2382519    9.2382519    9.2382519 
  201000    58.210835   -89.220815   -223.25937   0.46650914   -222.79287    9.2377192    9.2377192    9.2377192 
  202000     55.90353   -114.40478   -223.35178    0.4480181   -222.90376    9.2366223    9.2366223    9.2366223 
  203000    54.240369    -72.12393   -223.44445   0.43468932   -223.00976    9.2350956    9.2350956    9.2350956 
  204000     53.23302   -106.31299   -223.53886   0.42661629   -223.11224    9.2343295    9.2343295    9.2343295 
  205000    52.765366   -19.475219    -223.6353   0.42286845   -223.21243    9.2327753    9.2327753    9.2327753 
  206000     52.53587   -171.81083   -223.73227   0.42102924   -223.31124    9.2320777    9.2320777    9.2320777 
  207000    52.277346   -107.28547   -223.82788   0.41895739   -223.40892    9.2306875    9.2306875    9.2306875 
  208000    51.869952   -106.34534   -223.92107   0.41569249   -223.50537    9.2297607    9.2297607    9.2297607 
  209000    51.244663   -140.77612   -224.01099   0.41068134   -223.60031    9.2291057    9.2291057    9.2291057 
  210000    50.462271   -134.15507   -224.09786   0.40441115   -223.69345    9.2275084    9.2275084    9.2275084 
  211000    49.562281   -135.52925   -224.18171   0.39719852   -223.78451    9.2264871    9.2264871    9.2264871 
  212000    48.586292   -40.203002   -224.26277   0.38937681   -223.87339    9.2250328    9.2250328    9.2250328 
  213000    47.642217    14.242361   -224.34182   0.38181087   -223.96001    9.2238415    9.2238415    9.2238415 
  214000    46.799557   -185.45163   -224.41959   0.37505768   -224.04454    9.2237407    9.2237407    9.2237407 
  215000    46.150287   -237.01643   -224.49713   0.36985435   -224.12727    9.2224644    9.2224644    9.2224644 
  216000    45.588963   -170.93719   -224.57387   0.36535583   -224.20851    9.2216614    9.2216614    9.2216614 
  217000    45.084331    -35.43955   -224.64969   0.36131164   -224.28838    9.2206889    9.2206889    9.2206889 
  218000    44.485143    222.71089   -224.72341   0.35650968   -224.36691     9.219138     9.219138     9.219138 
  219000    43.696639    135.61698   -224.79402    0.3501905   -224.44383    9.2181772    9.2181772    9.2181772 
  220000    42.637494    192.58964   -224.86046   0.34170238   -224.51875    9.2166944    9.2166944    9.2166944 
  221000    41.448387     80.75629    -224.9235   0.33217272   -224.59133      9.21624      9.21624      9.21624 
  222000    40.304055     27.00429   -224.98446   0.32300189   -224.66146    9.2157251    9.2157251    9.2157251 
  223000    39.201178    62.155255   -225.04341    0.3141633   -224.72925    9.2149474    9.2149474    9.2149474 
  224000    38.270893    90.005689   -225.10157   0.30670787   -224.79486    9.2142638    9.2142638    9.2142638 
  225000    37.520166    35.138304   -225.15934   0.30069145   -224.85865    9.2136297    9.2136297    9.2136297 
  226000    36.884285    46.692546   -225.21646   0.29559542   -224.92087    9.2128211    9.2128211    9.2128211 
  227000    36.483655    174.56739   -225.27423   0.29238472   -224.98185    9.2115243    9.2115243    9.2115243 
  228000    36.269989    149.45801    -225.3326   0.29067237   -225.04193    9.2105219    9.2105219    9.2105219 
  229000    36.372469    84.928965   -225.39308   0.29149366   -225.10158    9.2102182    9.2102182    9.2102182 
  230000    36.817028    102.43306   -225.45646   0.29505641   -225.16141    9.2089908    9.2089908    9.2089908 
  231000    37.568063   -8.9277494   -225.52303    0.3010753   -225.22196     9.208313     9.208313     9.208313 
  232000    38.642027   -142.91028   -225.59354   0.30968219   -225.28386    9.2078238    9.2078238    9.2078238 
  233000    39.906079   -30.129928   -225.66739   0.31981246   -225.34758    9.2059917    9.2059917    9.2059917 
  234000    41.531435   -82.039094   -225.74645   0.33283828   -225.41361    9.2053534    9.2053534    9.2053534 
  235000     43.40292   -47.165312   -225.83044    0.3478366    -225.4826    9.2042262    9.2042262    9.2042262 
  236000    45.529672   -77.634007   -225.91992   0.36488066   -225.55504    9.2022949    9.2022949    9.2022949 
  237000    47.902346    60.875468   -226.01538   0.38389558   -225.63148    9.2004976    9.2004976    9.2004976 
  238000    50.545998    55.666104   -226.11765   0.40508215   -225.71257    9.1991677    9.1991677    9.1991677 
  239000    53.364126    43.921914    -226.2265   0.42766699   -225.79883    9.1975789    9.1975789    9.1975789 
  240000    56.324617    35.352988   -226.34219   0.45139274    -225.8908    9.1963375    9.1963375    9.1963375 
  241000    59.135544   -84.155882   -226.46263   0.47391987   -225.98871    9.1948118    9.1948118    9.1948118 
  242000    61.659119   -234.33325   -226.58659   0.49414413   -226.09245    9.1935593    9.1935593    9.1935593 
  243000    63.509205    -130.7662    -226.7103   0.50897096   -226.20133    9.1920768    9.1920768    9.1920768 
  244000    64.368135    -57.10957   -226.82987   0.51585454   -226.31401    9.1899849    9.1899849    9.1899849 
  245000     64.11172   -226.05551   -226.94235   0.51379959   -226.42855    9.1887958    9.1887958    9.1887958 
  246000    62.516911    -328.6242   -227.04354   0.50101859   -226.54252    9.1878366    9.1878366    9.1878366 
  247000    59.672452   -412.80303   -227.13147   0.47822272   -226.65325    9.1870793    9.1870793    9.1870793 
  248000    55.962422   -375.70973   -227.20686   0.44849007   -226.75837    9.1859744    9.1859744    9.1859744 
  249000    51.816252   -303.57404   -227.27154   0.41526213   -226.85627     9.184739     9.184739     9.184739 
  250000    47.874277   -312.31811   -227.33014   0.38367064   -226.94647     9.184163     9.184163     9.184163 
  251000    44.505736   -264.22095   -227.38618   0.35667471   -227.02951    9.1839537    9.1839537    9.1839537 
  252000    41.725334   -122.52496   -227.44079   0.33439221    -227.1064     9.183052     9.183052     9.183052 
  253000    39.313695   -118.99166   -227.49308   0.31506502   -227.17801    9.1818949    9.1818949    9.1818949 
  254000    37.037374    -233.4826   -227.54163   0.29682229   -227.24481    9.1811593    9.1811593    9.1811593 
  255000    34.740027   -249.90719   -227.58535   0.27841106   -227.30694    9.1804927    9.1804927    9.1804927 
  256000    32.470223   -252.01931   -227.62462   0.26022055    -227.3644    9.1798921    9.1798921    9.1798921 
  257000    30.277902   -222.97422   -227.66002   0.24265101   -227.41737    9.1791301    9.1791301    9.1791301 
  258000     28.28089    -154.8944   -227.69277    0.2266467   -227.46612    9.1784422    9.1784422    9.1784422 
  259000    26.604664   -118.47689   -227.72441   0.21321321    -227.5112    9.1778458    9.1778458    9.1778458 
  260000    25.192523   -57.545868   -227.75505   0.20189613   -227.55315     9.177483     9.177483     9.177483 
  261000     24.04361    9.3852969   -227.78516   0.19268859   -227.59248    9.1769444    9.1769444    9.1769444 
  262000    23.084425   -13.502469   -227.81463   0.18500156   -227.62962    9.1768237    9.1768237    9.1768237 
  263000    22.259607   -72.152649   -227.84328   0.17839136   -227.66488    9.1760926    9.1760926    9.1760926 
  264000    21.622827    44.819222   -227.87185   0.17328813   -227.69856    9.1752008    9.1752008    9.1752008 
  265000    21.182562    78.309837   -227.90077   0.16975978   -227.73101    9.1742407    9.1742407    9.1742407 
  266000    20.948356    80.296128   -227.93045   0.16788283   -227.76256     9.173673     9.173673     9.173673 
  267000    20.924015    53.230818   -227.96127   0.16768775   -227.79358    9.1739542    9.1739542    9.1739542 
  268000    21.086432    83.716997   -227.99338   0.16898938   -227.82439    9.1737272    9.1737272    9.1737272 
  269000    21.346934    162.37968   -228.02632   0.17107708   -227.85524    9.1732334    9.1732334    9.1732334 
  270000     21.66332    52.360066   -228.05986   0.17361264   -227.88625    9.1724549    9.1724549    9.1724549 
  271000     21.97368     5.308423    -228.0936    0.1760999    -227.9175    9.1718343    9.1718343    9.1718343 
  272000    22.290314     12.08956   -228.12764   0.17863745     -227.949    9.1712625    9.1712625    9.1712625 
  273000    22.594955    29.726375   -228.16184   0.18107888   -227.98076    9.1709023    9.1709023    9.1709023 
  274000     22.91611     77.26682   -228.19647   0.18365266   -228.01282    9.1699627    9.1699627    9.1699627 
  275000    23.216621    145.45259   -228.23126     0.186061    -228.0452    9.1691335    9.1691335    9.1691335 
  276000    23.446854    72.015393   -228.26574   0.18790611   -228.07783    9.1690743    9.1690743    9.1690743 
  277000    23.598584   -29.671856   -228.29977   0.18912209   -228.11065    9.1688683    9.1688683    9.1688683 
  278000    23.665323    28.881691    -228.3332   0.18965696   -228.14355    9.1685252    9.1685252    9.1685252 
  279000    23.623504    46.902461    -228.3657   0.18932181   -228.17638    9.1679627    9.1679627    9.1679627 
  280000    23.564153    78.709583   -228.39792   0.18884616   -228.20907    9.1671692    9.1671692    9.1671692 
  281000    23.456124   -62.357202   -228.42958    0.1879804    -228.2416    9.1675391    9.1675391    9.1675391 
  282000    23.280661   -49.833367   -228.46044   0.18657422   -228.27387    9.1669411    9.1669411    9.1669411 
  283000    23.057594   -80.318062   -228.49057   0.18478654   -228.30578    9.1670031    9.1670031    9.1670031 
  284000     22.79759    14.375106   -228.52003   0.18270283   -228.33732    9.1662911    9.1662911    9.1662911 
  285000    22.437537   -54.501633   -228.54816   0.17981731   -228.36835    9.1662018    9.1662018    9.1662018 
  286000    22.137759    24.187125   -228.57626   0.17741485   -228.39884    9.1660426    9.1660426    9.1660426 
  287000    21.883757    22.138162   -228.60426   0.17537926   -228.42888    9.1659019    9.1659019    9.1659019 
  288000    21.667912   -64.872661   -228.63219   0.17364944   -228.45854    9.1653782    9.1653782    9.1653782 
  289000    21.505178   -112.73012   -228.66019   0.17234527   -228.48784    9.1651099    9.1651099    9.1651099 
  290000    21.400006   -107.96925   -228.68839    0.1715024   -228.51689    9.1648993    9.1648993    9.1648993 
  291000    21.316698   -53.202433   -228.71658   0.17083477   -228.54574    9.1643233    9.1643233    9.1643233 
  292000    21.205592   -43.873141   -228.74434   0.16994435   -228.57439    9.1638923    9.1638923    9.1638923 
  293000    21.062367   -109.93541    -228.7716   0.16879653    -228.6028    9.1639001    9.1639001    9.1639001 
  294000    20.880581   -18.146828   -228.79827   0.16733967   -228.63093    9.1629431    9.1629431    9.1629431 
  295000    20.657937    17.821025   -228.82427   0.16555537   -228.65872    9.1624175    9.1624175    9.1624175 
  296000    20.393173    36.274317   -228.84955   0.16343352   -228.68611    9.1624109    9.1624109    9.1624109 
  297000    20.066846     19.40366   -228.87387   0.16081829   -228.71305    9.1626382    9.1626382    9.1626382 
  298000    19.684697     48.72456   -228.89716    0.1577557   -228.73941    9.1621432    9.1621432    9.1621432 
  299000    19.321071    6.0822491   -228.92006   0.15484155   -228.76522    9.1617157    9.1617157    9.1617157 
  300000    18.921903    113.24281   -228.94207   0.15164257   -228.79043    9.1610343    9.1610343    9.1610343 
  301000    18.574575    92.989785   -228.96391   0.14885904   -228.81505    9.1606038    9.1606038    9.1606038 
  302000    18.254787    104.81222   -228.98545   0.14629622   -228.83916    9.1604932    9.1604932    9.1604932 
  303000    17.954484    50.536486   -229.00665   0.14388955   -228.86276    9.1603025    9.1603025    9.1603025 
  304000    17.680781   -17.011763    -229.0276   0.14169606   -228.88591    9.1604604    9.1604604    9.1604604 
  305000    17.457391    35.283901   -229.04854   0.13990578   -228.90863    9.1597114    9.1597114    9.1597114 
  306000    17.270798     51.06389   -229.06943   0.13841041   -228.93101    9.1590039    9.1590039    9.1590039 
  307000     17.07574   -7.8672984   -229.08991   0.13684719   -228.95306    9.1583891    9.1583891    9.1583891 
  308000    16.870331   -30.968846   -229.10996   0.13520101   -228.97476    9.1583029    9.1583029    9.1583029 
  309000    16.646312    75.762122   -229.12951   0.13340569   -228.99611    9.1579212    9.1579212    9.1579212 
  310000    16.437912    41.958433   -229.14883   0.13173555    -229.0171    9.1574609    9.1574609    9.1574609 
  311000    16.236184    14.712836   -229.16786   0.13011887   -229.03774    9.1570304    9.1570304    9.1570304 
  312000    16.038511    30.494993   -229.18659   0.12853469   -229.05805    9.1569053    9.1569053    9.1569053 
  313000     15.81577    40.293449   -229.20478   0.12674962   -229.07803    9.1565222    9.1565222    9.1565222 
  314000    15.577144   -65.828866   -229.22247   0.12483724   -229.09764    9.1567179    9.1567179    9.1567179 
  315000    15.318544    -64.43203   -229.23962   0.12276479   -229.11685    9.1563378    9.1563378    9.1563378 
  316000    15.069048   -45.750673   -229.25644   0.12076529   -229.13568    9.1563943    9.1563943    9.1563943 
  317000    14.813913    9.8650948   -229.27284   0.11872061   -229.15412    9.1561538    9.1561538    9.1561538 
  318000     14.51011    42.257785   -229.28843   0.11628589   -229.17214    9.1555895    9.1555895    9.1555895 
  319000    14.140703    56.984684     -229.303   0.11332542   -229.18967    9.1551857    9.1551857    9.1551857 
  320000    13.746105    68.477546   -229.31682   0.11016306   -229.20665    9.1549298    9.1549298    9.1549298 
  321000    13.308338    50.393123   -229.32971   0.10665474   -229.22305    9.1549475    9.1549475    9.1549475 
  322000    12.835426    10.312629   -229.34169   0.10286476   -229.23882    9.1551243    9.1551243    9.1551243 
  323000    12.316701  -0.55891863   -229.35262  0.098707629   -229.25391    9.1549521    9.1549521    9.1549521 
  324000    11.767091   -69.803795   -229.36258  0.094302982   -229.26827    9.1552181    9.1552181    9.1552181 
  325000    11.210022    28.112267   -229.37173  0.089838558   -229.28189    9.1549361    9.1549361    9.1549361 
  326000    10.661871   -30.962229   -229.38021   0.08544561   -229.29477    9.1548539    9.1548539    9.1548539 
  327000     10.14623   -68.787283   -229.38824  0.081313197   -229.30693    9.1545398    9.1545398    9.1545398 
  328000     9.688735   -13.571208   -229.39608  0.077646772   -229.31843    9.1546381    9.1546381    9.1546381 
  329000    9.2895629    21.065951   -229.40381  0.074447755   -229.32936    9.1543069    9.1543069    9.1543069 
  330000    8.9398048    -15.19922   -229.41142  0.071644749   -229.33978    9.1544546    9.1544546    9.1544546 
  331000    8.6687682   -88.538372   -229.41923  0.069472627   -229.34976    9.1545812    9.1545812    9.1545812 
  332000    8.4512118   -93.909818   -229.42712  0.067729101   -229.35939    9.1544473    9.1544473    9.1544473 
  333000    8.2761736   -93.549241   -229.43505  0.066326323   -229.36873    9.1543731    9.1543731    9.1543731 
  334000    8.1655442   -38.611764   -229.44327  0.065439724   -229.37784    9.1539166    9.1539166    9.1539166 
  335000    8.1027088   -27.323744   -229.45172  0.064936153   -229.38678    9.1537624    9.1537624    9.1537624 
  336000    8.0675791   -60.732108   -229.46027   0.06465462   -229.39561    9.1538748    9.1538748    9.1538748 
  337000    8.0565228   -63.404056   -229.46892  0.064566013   -229.40436    9.1537918    9.1537918    9.1537918 
  338000    8.0592361   -76.257159   -229.47763  0.064587757   -229.41304    9.1535206    9.1535206    9.1535206 
  339000    8.0834645   -53.105529   -229.48646  0.064781927   -229.42168      9.15365      9.15365      9.15365 
  340000    8.1561511   -28.841818   -229.49569  0.065364447   -229.43032    9.1535309    9.1535309    9.1535309 
  341000    8.2097996    33.564286   -229.50478  0.065794393   -229.43898    9.1533903    9.1533903    9.1533903 
  342000    8.2671108    73.819402   -229.51391  0.066253692   -229.44766    9.1531152    9.1531152    9.1531152 
  343000    8.3231092   -1.4541867   -229.52305  0.066702471   -229.45635    9.1531707    9.1531707    9.1531707 
  344000    8.3663977    -34.65501    -229.5321   0.06704939   -229.46505    9.1532725    9.1532725    9.1532725 
  345000    8.4227254   -83.632278   -229.54126  0.067500808   -229.47376     9.153125     9.153125     9.153125 
  346000    8.4805792   -124.13135   -229.55047  0.067964455    -229.4825    9.1529077    9.1529077    9.1529077 
  347000    8.5336953   -37.453297   -229.55965  0.068390135   -229.49126     9.152485     9.152485     9.152485 
  348000    8.6187795    -68.72551   -229.56912  0.069072011   -229.50005    9.1524067    9.1524067    9.1524067 
  349000    8.7150319   -52.586837   -229.57875   0.06984339   -229.50891    9.1521224    9.1521224    9.1521224 
  350000    8.8094992   -54.734668   -229.58844  0.070600463   -229.51784    9.1522645    9.1522645    9.1522645 
  351000    8.9044516   -96.311823    -229.5982  0.071361424   -229.52684    9.1523377    9.1523377    9.1523377 
  352000      8.98697   -97.605163   -229.60794  0.072022737   -229.53591     9.151999     9.151999     9.151999 
  353000    9.0493568   -158.50354   -229.61756  0.072522713   -229.54503    9.1517776    9.1517776    9.1517776 
  354000    9.1084424   -177.52233   -229.62719  0.072996232    -229.5542    9.1518841    9.1518841    9.1518841 
  355000    9.1471103     -135.988    -229.6367  0.073306122   -229.56339    9.1516298    9.1516298    9.1516298 
  356000    9.1676928   -168.83074   -229.64607  0.073471072    -229.5726    9.1516919    9.1516919    9.1516919 
  357000    9.1593633   -113.02045   -229.65521  0.073404319    -229.5818    9.1514743    9.1514743    9.1514743 
  358000    9.1340212   -64.072276   -229.66417  0.073201224   -229.59097    9.1512971    9.1512971    9.1512971 
  359000    9.1023151    -19.89031   -229.67303  0.072947127   -229.60009    9.1510972    9.1510972    9.1510972 
  360000    9.0646538     34.08775    -229.6818  0.072645305   -229.60916    9.1509366    9.1509366    9.1509366 
  361000     9.022031      62.3846   -229.69048   0.07230372   -229.61818    9.1510428    9.1510428    9.1510428 
  362000    8.9934673     122.0526   -229.69921  0.072074807   -229.62714    9.1508541    9.1508541    9.1508541 
  363000    9.0190417    144.96769   -229.70836  0.072279763   -229.63608    9.1509028    9.1509028    9.1509028 
  364000    9.0551123    191.13662   -229.71762  0.072568838   -229.64505    9.1502929    9.1502929    9.1502929 
  365000    9.0898738    156.79362   -229.72689  0.072847421   -229.65405    9.1501934    9.1501934    9.1501934 
  366000    9.1414242    126.66695   -229.73633  0.073260553   -229.66307    9.1500925    9.1500925    9.1500925 
  367000    9.2174481    52.839162   -229.74601  0.073869818   -229.67214    9.1504291    9.1504291    9.1504291 
  368000    9.3362174    30.216385   -229.75612   0.07482165    -229.6813    9.1504587    9.1504587    9.1504587 
  369000     9.507463    24.264409   -229.76679  0.076194035   -229.69059    9.1504018    9.1504018    9.1504018 
  370000     9.716281    6.0422971   -229.77794  0.077867529   -229.70008    9.1501756    9.1501756    9.1501756 
  371000    9.9518231   -30.980971   -229.78953  0.079755194   -229.70977    9.1501786    9.1501786    9.1501786 
  372000    10.201478    144.57117   -229.80147  0.081755962   -229.71972    9.1493851    9.1493851    9.1493851 
  373000    10.480443    69.983875   -229.81392  0.083991619   -229.72993    9.1495814    9.1495814    9.1495814 
  374000    10.781612    52.803169   -229.82684  0.086405233   -229.74044    9.1494661    9.1494661    9.1494661 
  375000    11.132315   -59.122278    -229.8405  0.089215806   -229.75128    9.1493068    9.1493068    9.1493068 
  376000    11.515778   -62.001867   -229.85481  0.092288929   -229.76252    9.1492397    9.1492397    9.1492397 
  377000    11.927832   -78.935601   -229.86976  0.095591181   -229.77417    9.1490259    9.1490259    9.1490259 
  378000    12.382098   -74.506588   -229.88553  0.099231731    -229.7863    9.1489406    9.1489406    9.1489406 
  379000    12.830744   -33.252133   -229.90175   0.10282724   -229.79892    9.1484599    9.1484599    9.1484599 
  380000    13.289743   -65.344538   -229.91856   0.10650571   -229.81206    9.1483308    9.1483308    9.1483308 
  381000    13.757523   -27.459562   -229.93597   0.11025456   -229.82572    9.1478487    9.1478487    9.1478487 
  382000    14.219875    71.436237   -229.95389   0.11395992   -229.83993    9.1474526    9.1474526    9.1474526 
  383000    14.632843    83.856874   -229.97194   0.11726949   -229.85467    9.1475564    9.1475564    9.1475564 
  384000    15.013836    112.01775   -229.99022   0.12032282    -229.8699    9.1471223    9.1471223    9.1471223 
  385000    15.444766    58.400861   -230.00941   0.12377635   -229.88564    9.1472846    9.1472846    9.1472846 
  386000    15.876033    244.75003   -230.02918   0.12723258   -229.90195    9.1463996    9.1463996    9.1463996 
  387000     16.23143    232.91087   -230.04886   0.13008078   -229.91878    9.1461922    9.1461922    9.1461922 
  388000    16.559958    181.38729    -230.0688   0.13271364   -229.93608    9.1460166    9.1460166    9.1460166 
  389000    16.861013    202.76472   -230.08898   0.13512633   -229.95385    9.1461914    9.1461914    9.1461914 
  390000    17.111846    232.43947   -230.10918   0.13713654   -229.97204    9.1460603    9.1460603    9.1460603 
  391000    17.297155    186.71119   -230.12921   0.13862163   -229.99059    9.1457341    9.1457341    9.1457341 
  392000    17.492205    135.78567   -230.14967   0.14018479   -230.00948    9.1453654    9.1453654    9.1453654 
  393000    17.644421    157.93995    -230.1701   0.14140467    -230.0287    9.1448614    9.1448614    9.1448614 
  394000    17.781038    153.11054   -230.19069   0.14249953   -230.04819    9.1447533    9.1447533    9.1447533 
  395000    17.862176    163.69343    -230.2111   0.14314978   -230.06795    9.1441924    9.1441924    9.1441924 
  396000    17.906057    84.893504    -230.2314   0.14350145   -230.08789     9.144609     9.144609     9.144609 
  397000    17.927046    11.748823   -230.25166   0.14366966   -230.10799     9.144624     9.144624     9.144624 
  398000     17.93651    162.30444   -230.27196   0.14374551   -230.12822    9.1440746    9.1440746    9.1440746 
  399000    17.905556    226.12885   -230.29203   0.14349743   -230.14854    9.1436799    9.1436799    9.1436799 
  400000    17.849818    202.88027   -230.31197   0.14305075   -230.16892    9.1435171    9.1435171    9.1435171 
  401000    17.743478    242.41738   -230.33149   0.14219852   -230.18929    9.1430492    9.1430492    9.1430492 
  402000     17.58149    31.873981    -230.3505   0.14090033    -230.2096    9.1430948    9.1430948    9.1430948 
  403000    17.411326    121.12368   -230.36933   0.13953662   -230.22979    9.1426025    9.1426025    9.1426025 
  404000     17.19884    54.503361   -230.38766   0.13783373   -230.24982    9.1426153    9.1426153    9.1426153 
  405000    16.981663   -52.090471   -230.40575   0.13609323   -230.26966    9.1429506    9.1429506    9.1429506 
  406000    16.746544   -119.24119   -230.42349   0.13420896   -230.28928    9.1429788    9.1429788    9.1429788 
  407000    16.552261   -88.514127   -230.44133   0.13265195   -230.30868    9.1427002    9.1427002    9.1427002 
  408000    16.399802   -126.93546   -230.45935   0.13143013   -230.32792     9.142703     9.142703     9.142703 
  409000    16.242199   -89.227258   -230.47717   0.13016708     -230.347    9.1419723    9.1419723    9.1419723 
  410000    16.073955   -58.130397   -230.49472   0.12881875    -230.3659    9.1418072    9.1418072    9.1418072 
  411000    15.904032   -88.978986   -230.51207   0.12745696   -230.38461    9.1419461    9.1419461    9.1419461 
  412000     15.75274   -45.776466   -230.52939   0.12624449   -230.40314    9.1414187    9.1414187    9.1414187 
  413000    15.617129   -39.789839   -230.54667   0.12515768   -230.42151    9.1412446    9.1412446    9.1412446 
  414000    15.520684    12.704017   -230.56412   0.12438476   -230.43974    9.1409625    9.1409625    9.1409625 
  415000    15.451127   -17.861842   -230.58169   0.12382732   -230.45786    9.1406623    9.1406623    9.1406623 
  416000    15.343816    14.641909   -230.59887   0.12296732    -230.4759    9.1397238    9.1397238    9.1397238 
  417000    15.230759    105.37506   -230.61585   0.12206127   -230.49378    9.1390698    9.1390698    9.1390698 
  418000    15.140293    128.21879   -230.63287   0.12133626   -230.51154    9.1389699    9.1389699    9.1389699 
  419000    15.058737    64.031788   -230.64987   0.12068266   -230.52919    9.1386214    9.1386214    9.1386214 
  420000     14.94883    95.710099   -230.66651   0.11980185   -230.54671      9.13811      9.13811      9.13811 
  421000    14.795147    27.009314   -230.68265   0.11857022   -230.56408    9.1383605    9.1383605    9.1383605 
  422000    14.640729   -32.541074   -230.69858   0.11733269   -230.58124    9.1384085    9.1384085    9.1384085 
  423000    14.526309   -57.497966   -230.71464   0.11641571   -230.59823    9.1376231    9.1376231    9.1376231 
  424000    14.397257   -89.543145   -230.73044   0.11538148   -230.61505    9.1371274    9.1371274    9.1371274 
  425000    14.277359   -118.72846   -230.74613   0.11442059   -230.63171    9.1374383    9.1374383    9.1374383 
  426000    14.171479     5.080209   -230.76178   0.11357206   -230.64821    9.1367556    9.1367556    9.1367556 
  427000    14.034492    5.1743095   -230.77703   0.11247423   -230.66455    9.1364392    9.1364392    9.1364392 
  428000    13.907504    25.440968   -230.79217   0.11145653   -230.68071    9.1361074    9.1361074    9.1361074 
  429000    13.784286    29.576173   -230.80718   0.11046905   -230.69671    9.1360466    9.1360466    9.1360466 
  430000    13.645978    58.414336   -230.82189   0.10936063   -230.71253    9.1355253    9.1355253    9.1355253 
  431000    13.500138    14.631072   -230.83634   0.10819185   -230.72815    9.1353525    9.1353525    9.1353525 
  432000    13.334863   -69.640885   -230.85043   0.10686731   -230.74356    9.1348904    9.1348904    9.1348904 
  433000    13.159673   -104.10279   -230.86421   0.10546332   -230.75874      9.13463      9.13463      9.13463 
  434000    12.969447   -168.89685   -230.87764   0.10393882    -230.7737    9.1347582    9.1347582    9.1347582 
  435000    12.750139   -145.31021   -230.89056   0.10218126   -230.78837     9.134878     9.134878     9.134878 
  436000    12.547654   -70.114912   -230.90334   0.10055852   -230.80278     9.134036     9.134036     9.134036 
  437000    12.335436   -134.19204   -230.91576  0.098857773    -230.8169    9.1338724    9.1338724    9.1338724 
  438000    12.142601   -103.92483   -230.92808  0.097312368   -230.83076    9.1335174    9.1335174    9.1335174 
  439000    11.921988   -8.4274595    -230.9399  0.095544351   -230.84435    9.1329897    9.1329897    9.1329897 
  440000    11.668237    -35.76907   -230.95114  0.093510756   -230.85763    9.1331504    9.1331504    9.1331504 
  441000    11.428664   -24.412447   -230.96218  0.091590788   -230.87059     9.132581     9.132581     9.132581 
  442000    11.208317   -71.709156   -230.97307  0.089824897   -230.88324    9.1325586    9.1325586    9.1325586 
  443000    10.972685    -71.67665   -230.98354  0.087936514    -230.8956    9.1322881    9.1322881    9.1322881 
  444000    10.710229   -17.350594   -230.99347  0.085833154   -230.90763    9.1322226    9.1322226    9.1322226 
  445000    10.456748    -17.01272   -231.00314  0.083801726   -230.91934    9.1321315    9.1321315    9.1321315 
  446000    10.194817   -7.1941724   -231.01241  0.081702575   -230.93071    9.1318388    9.1318388    9.1318388 
  447000    9.9214789    8.8189586   -231.02125  0.079512012   -230.94174    9.1317363    9.1317363    9.1317363 
  448000    9.6019054    61.448813   -231.02935  0.076950909    -230.9524    9.1316849    9.1316849    9.1316849 
  449000    9.2375137    43.009592   -231.03667  0.074030627   -230.96264    9.1313009    9.1313009    9.1313009 
  450000    8.8572192    58.881361   -231.04341  0.070982897   -230.97242    9.1309975    9.1309975    9.1309975 
  451000    8.4539855    90.812074   -231.04949  0.067751331   -230.98174    9.1306372    9.1306372    9.1306372 
  452000     8.036335     167.5669   -231.05496  0.064404225   -230.99055    9.1304714    9.1304714    9.1304714 
  453000    7.6049738    155.27451   -231.05982  0.060947241   -230.99887    9.1304558    9.1304558    9.1304558 
  454000     7.163827    138.40858   -231.06408  0.057411834   -231.00667    9.1305316    9.1305316    9.1305316 
  455000    6.7102411    98.208032   -231.06772  0.053776738   -231.01395    9.1305358    9.1305358    9.1305358 
  456000    6.2346861    79.336623   -231.07066  0.049965579   -231.02069    9.1307598    9.1307598    9.1307598 
  457000    5.7644627    58.480632   -231.07309  0.046197147   -231.02689    9.1312438    9.1312438    9.1312438 
  458000    5.2924717    29.248002   -231.07497  0.042414551   -231.03256    9.1315342    9.1315342    9.1315342 
  459000    4.8339715   -69.106739   -231.07644  0.038740071    -231.0377    9.1314564    9.1314564    9.1314564 
  460000    4.4062243    -26.95445   -231.07767   0.03531205   -231.04235    9.1312321    9.1312321    9.1312321 
  461000    4.0112187   -1.1494544    -231.0787  0.032146424   -231.04655    9.1310562    9.1310562    9.1310562 
  462000    3.6391483   -7.5959501    -231.0795  0.029164604   -231.05033    9.1313005    9.1313005    9.1313005 
  463000    3.2911793    36.726393    -231.0801  0.026375935   -231.05372    9.1311079    9.1311079    9.1311079 
  464000    2.9551162    29.069921   -231.08044  0.023682682   -231.05675    9.1308485    9.1308485    9.1308485 
  465000    2.6395827    93.644022   -231.08059  0.021153956   -231.05943    9.1305859    9.1305859    9.1305859 
  466000    2.3466672    89.074486   -231.08061  0.018806494    -231.0618    9.1304861    9.1304861    9.1304861 
  467000    2.0797087    191.11021   -231.08054  0.016667054   -231.06388    9.1302954    9.1302954    9.1302954 
  468000    1.8378445    86.886247   -231.08042  0.014728723   -231.06569    9.1304816    9.1304816    9.1304816 
  469000    1.6245891    68.615326    -231.0803  0.013019666   -231.06728    9.1305429    9.1305429    9.1305429 
  470000    1.4383108    47.159259    -231.0802  0.011526808   -231.06867    9.1306847    9.1306847    9.1306847 
  471000    1.2812446    124.07693   -231.08016   0.01026806   -231.06989    9.1303277    9.1303277    9.1303277 
  472000    1.1533579    243.65239   -231.08022 0.0092431586   -231.07097    9.1302153    9.1302153    9.1302153 
  473000    1.0487184   -1.3582511   -231.08034 0.0084045643   -231.07194    9.1304559    9.1304559    9.1304559 
  474000   0.96445202    11.626453   -231.08054 0.0077292429   -231.07281    9.1303614    9.1303614    9.1303614 
  475000   0.89856914    39.769771   -231.08081  0.007201249   -231.07361    9.1303253    9.1303253    9.1303253 
  476000   0.84654981   -35.314379   -231.08114 0.0067843594   -231.07435    9.1304589    9.1304589    9.1304589 
  477000   0.80769576   -129.20543   -231.08152  0.006472978   -231.07505    9.1304749    9.1304749    9.1304749 
  478000   0.77925315   -3.6883756   -231.08195 0.0062450353   -231.07571    9.1301802    9.1301802    9.1301802 
  479000   0.75902989   -13.841977   -231.08242 0.0060829635   -231.07634    9.1301778    9.1301778    9.1301778 
  480000   0.74455981   -20.139817   -231.08292 0.0059669984   -231.07695    9.1301498    9.1301498    9.1301498 
  481000    0.7336115   -22.377772   -231.08343 0.0058792572   -231.07755    9.1301064    9.1301064    9.1301064 
  482000   0.72437326    18.231383   -231.08394 0.0058052208   -231.07813    9.1299852    9.1299852    9.1299852 
  483000   0.71511765    2.0890299   -231.08443 0.0057310451    -231.0787    9.1300217    9.1300217    9.1300217 
  484000   0.70693955    9.2698687   -231.08492 0.0056655048   -231.07926    9.1299579    9.1299579    9.1299579 
  485000   0.69828514    50.485956    -231.0854 0.0055961472    -231.0798    9.1299304    9.1299304    9.1299304 
  486000   0.68571332    68.331189   -231.08583  0.005495395   -231.08034    9.1301342    9.1301342    9.1301342 
  487000   0.67036483    77.680955   -231.08623 0.0053723902   -231.08085    9.1302707    9.1302707    9.1302707 
  488000   0.65339393    52.769477   -231.08659 0.0052363832   -231.08135    9.1304015    9.1304015    9.1304015 
  489000   0.63754667    24.534333   -231.08695 0.0051093813   -231.08184    9.1305366    9.1305366    9.1305366 
  490000   0.62133242    33.851364   -231.08728 0.0049794381    -231.0823    9.1304178    9.1304178    9.1304178 
  491000    0.6057878    18.626149   -231.08761 0.0048548616   -231.08275    9.1304986    9.1304986    9.1304986 
  492000   0.58950415    4.5319489   -231.08791 0.0047243623   -231.08319    9.1305459    9.1305459    9.1305459 
  493000   0.56609768   -71.459272   -231.08815 0.0045367798   -231.08361    9.1307036    9.1307036    9.1307036 
  494000   0.53410354    -40.62239   -231.08828 0.0042803747     -231.084    9.1307424    9.1307424    9.1307424 
  495000    0.5039593   -30.912942   -231.08841 0.0040387948   -231.08437    9.1307389    9.1307389    9.1307389 
  496000   0.47554216   -11.914943   -231.08853 0.0038110562   -231.08472    9.1305426    9.1305426    9.1305426 
  497000   0.44648524    24.496931   -231.08862 0.0035781903   -231.08504    9.1303038    9.1303038    9.1303038 
  498000   0.41778943   -5.5557974   -231.08869 0.0033482184   -231.08534     9.130367     9.130367     9.130367 
  499000   0.39004862   -63.617749   -231.08874 0.0031258999   -231.08562    9.1304844    9.1304844    9.1304844 
  500000    0.3628162   -86.963253   -231.08878 0.0029076559   -231.08588    9.1305268    9.1305268    9.1305268 
  501000   0.33687542    -62.54969   -231.08881  0.002699763   -231.08611    9.1304602    9.1304602    9.1304602 
  502000   0.31202275   -98.044508   -231.08883 0.0025005906   -231.08633    9.1304451    9.1304451    9.1304451 
  503000   0.28960707   -87.297426   -231.08885 0.0023209484   -231.08653    9.1304003    9.1304003    9.1304003 
  504000   0.26976218   -85.353418   -231.08888 0.0021619089   -231.08671    9.1303756    9.1303756    9.1303756 
  505000    0.2535552    -80.72054   -231.08892 0.0020320241   -231.08689    9.1302688    9.1302688    9.1302688 
  506000   0.24071952   -30.668336   -231.08898 0.0019291573   -231.08705     9.130375     9.130375     9.130375 
  507000   0.23000694   -2.8148396   -231.08904 0.0018433053    -231.0872    9.1303774    9.1303774    9.1303774 
  508000   0.22053295   -10.421438   -231.08911 0.0017673795   -231.08734    9.1303775    9.1303775    9.1303775 
  509000   0.21140987     11.28778   -231.08917  0.001694266   -231.08748     9.130233     9.130233     9.130233 
  510000   0.20256465   -1.1366278   -231.08923 0.0016233792   -231.08761    9.1302428    9.1302428    9.1302428 
  511000   0.19485578   -10.494747   -231.08929 0.0015615993   -231.08773     9.130243     9.130243     9.130243 
  512000   0.18837874   -16.621338   -231.08936 0.0015096915   -231.08785    9.1302329    9.1302329    9.1302329 
  513000   0.18230848   -35.950771   -231.08943 0.0014610437   -231.08796    9.1301731    9.1301731    9.1301731 
  514000   0.17662731   -29.495298   -231.08949  0.001415514   -231.08807    9.1301338    9.1301338    9.1301338 
  515000   0.17121316   -55.056213   -231.08955 0.0013721243   -231.08818    9.1302509    9.1302509    9.1302509 
  516000   0.16560821    23.003084   -231.08961 0.0013272055   -231.08828    9.1300725    9.1300725    9.1300725 
  517000   0.16156581    27.014687   -231.08967 0.0012948092   -231.08838    9.1300614    9.1300614    9.1300614 
  518000   0.15918767    46.997174   -231.08975 0.0012757506   -231.08847     9.130094     9.130094     9.130094 
  519000   0.15734604   -21.526313   -231.08983 0.0012609915   -231.08857    9.1301688    9.1301688    9.1301688 
  520000   0.15558018   -34.719324    -231.0899 0.0012468396   -231.08866    9.1301986    9.1301986    9.1301986 
  521000   0.15296284   -15.619548   -231.08997 0.0012258639   -231.08875    9.1302398    9.1302398    9.1302398 
  522000   0.15031227   -24.521969   -231.09004 0.0012046219   -231.08883    9.1302638    9.1302638    9.1302638 
  523000   0.14873503   -28.670934   -231.09011 0.0011919817   -231.08892    9.1302737    9.1302737    9.1302737 
  524000   0.14819934   -62.259316   -231.09019 0.0011876886     -231.089    9.1302668    9.1302668    9.1302668 
  525000    0.1479926   -2.9124568   -231.09027 0.0011860318   -231.08909    9.1301325    9.1301325    9.1301325 
  526000   0.14770386   -5.8967888   -231.09035 0.0011837178   -231.08917    9.1301323    9.1301323    9.1301323 
  527000   0.14601011    14.138217   -231.09042 0.0011701438   -231.08925    9.1302494    9.1302494    9.1302494 
  528000   0.14467319    59.442038   -231.09049 0.0011594296   -231.08933    9.1301437    9.1301437    9.1301437 
  529000   0.14359542     49.97143   -231.09056 0.0011507922   -231.08941    9.1300759    9.1300759    9.1300759 
  530000   0.14228424    45.340558   -231.09063 0.0011402842   -231.08949    9.1300689    9.1300689    9.1300689 
  531000   0.13958785    73.881359   -231.09068  0.001118675   -231.08956    9.1299075    9.1299075    9.1299075 
  532000   0.13620988   -77.382096   -231.09073 0.0010916036   -231.08964    9.1300741    9.1300741    9.1300741 
  533000   0.13388576   -83.789438   -231.09078 0.0010729777   -231.08971    9.1300816    9.1300816    9.1300816 
  534000   0.13113688   -1.9707633   -231.09083 0.0010509479   -231.08978    9.1300638    9.1300638    9.1300638 
  535000    0.1280101    110.88775   -231.09087 0.0010258895   -231.08985    9.1299687    9.1299687    9.1299687 
  536000   0.12484655    56.098967   -231.09092 0.0010005363   -231.08992    9.1300801    9.1300801    9.1300801 
  537000    0.1212803   -36.835448   -231.09095  0.000971956   -231.08998    9.1301114    9.1301114    9.1301114 
  538000   0.11735572   -43.251029   -231.09098 0.00094050388   -231.09004    9.1300453    9.1300453    9.1300453 
  539000   0.11317762   -53.215256   -231.09101 0.00090702001    -231.0901    9.1301424    9.1301424    9.1301424 
  540000    0.1088646    18.293689   -231.09103 0.00087245494   -231.09016    9.1299904    9.1299904    9.1299904 
  541000   0.10421817    35.512949   -231.09105 0.00083521783   -231.09021    9.1299621    9.1299621    9.1299621 
  542000  0.099171575   -18.036228   -231.09106 0.0007947738   -231.09026    9.1300131    9.1300131    9.1300131 
  543000  0.093686418    5.0058537   -231.09106 0.00075081504   -231.09031    9.1300615    9.1300615    9.1300615 
  544000  0.088675913    30.713918   -231.09107 0.0007106602   -231.09036    9.1300014    9.1300014    9.1300014 
  545000  0.083504826    15.604052   -231.09107 0.00066921845    -231.0904    9.1302103    9.1302103    9.1302103 
  546000  0.079883937    39.802293   -231.09108 0.00064020018   -231.09044    9.1301549    9.1301549    9.1301549 
  547000  0.076141614    -70.37397   -231.09109 0.00061020872   -231.09047     9.130217     9.130217     9.130217 
  548000  0.070829789   -45.420752   -231.09108 0.00056763906   -231.09051    9.1302295    9.1302295    9.1302295 
  549000    0.0662948    21.499304   -231.09107 0.00053129508   -231.09054    9.1300683    9.1300683    9.1300683 
  550000  0.063377528    3.5073188   -231.09108 0.00050791568   -231.09057    9.1300139    9.1300139    9.1300139 
  551000  0.062051727    5.7951547    -231.0911 0.00049729055    -231.0906    9.1299894    9.1299894    9.1299894 
  552000  0.059783847    99.083625   -231.09111 0.00047911546   -231.09063    9.1300157    9.1300157    9.1300157 
  553000  0.057625815   -26.862987   -231.09112 0.00046182071   -231.09066    9.1302741    9.1302741    9.1302741 
  554000  0.055976363   -83.550611   -231.09114 0.00044860179   -231.09069    9.1302106    9.1302106    9.1302106 
  555000  0.053786515   -6.2473058   -231.09114 0.00043105207   -231.09071    9.1301067    9.1301067    9.1301067 
  556000  0.052724159    -17.14799   -231.09116 0.00042253821   -231.09074     9.130114     9.130114     9.130114 
  557000   0.05219147   0.39135874   -231.09118 0.00041826917   -231.09076    9.1299814    9.1299814    9.1299814 
  558000  0.051487329    29.357668    -231.0912 0.00041262609   -231.09078    9.1299779    9.1299779    9.1299779 
  559000  0.050896846   -11.355107   -231.09122 0.00040789389   -231.09081    9.1299733    9.1299733    9.1299733 
  560000  0.050025914   -1.5308802   -231.09123 0.00040091413   -231.09083    9.1301817    9.1301817    9.1301817 
  561000  0.049523856   -2.9722876   -231.09125 0.00039689057   -231.09085    9.1301721    9.1301721    9.1301721 
  562000   0.04983477    17.281698   -231.09127 0.00039938228   -231.09087    9.1301968    9.1301968    9.1301968 
  563000   0.04990477   -83.423055    -231.0913 0.00039994326    -231.0909    9.1300723    9.1300723    9.1300723 
  564000   0.05009425   -34.355382   -231.09132 0.00040146178   -231.09092    9.1299537    9.1299537    9.1299537 
  565000  0.050671963    34.605259   -231.09135 0.00040609165   -231.09094    9.1298679    9.1298679    9.1298679 
  566000  0.051391776    89.549138   -231.09137 0.00041186032   -231.09096    9.1299025    9.1299025    9.1299025 
  567000  0.052058809   -44.601466    -231.0914 0.00041720601   -231.09098    9.1301042    9.1301042    9.1301042 
  568000  0.053117947     56.30302   -231.09143 0.00042569408   -231.09101    9.1298654    9.1298654    9.1298654 
  569000  0.053781405    2.4335459   -231.09146 0.00043101111   -231.09103    9.1298987    9.1298987    9.1298987 
  570000  0.053976674   -9.6545445   -231.09148 0.00043257603   -231.09105    9.1299315    9.1299315    9.1299315 
  571000  0.054229144   -29.953329   -231.09151 0.00043459935   -231.09107    9.1298103    9.1298103    9.1298103 
  572000  0.054089566    21.478228   -231.09153 0.00043348076    -231.0911    9.1297758    9.1297758    9.1297758 
  573000  0.053989482    -51.23674   -231.09155 0.00043267868   -231.09112     9.129858     9.129858     9.129858 
  574000  0.053812795    3.5049741   -231.09157 0.00043126268   -231.09114     9.129819     9.129819     9.129819 
  575000  0.053480662    -22.85171   -231.09159 0.00042860092   -231.09116    9.1298029    9.1298029    9.1298029 
  576000  0.052951708     13.05677   -231.09161 0.00042436182   -231.09118    9.1297272    9.1297272    9.1297272 
  577000  0.052282756   -19.546182   -231.09162 0.00041900075   -231.09121    9.1297978    9.1297978    9.1297978 
  578000  0.051688207    20.576246   -231.09164 0.00041423595   -231.09123    9.1297117    9.1297117    9.1297117 
  579000  0.051299359   -8.8449226   -231.09166 0.00041111968   -231.09125    9.1297785    9.1297785    9.1297785 
  580000  0.051008795    16.334709   -231.09168 0.00040879106   -231.09127     9.129804     9.129804     9.129804 
  581000  0.050765982    37.694119   -231.09169 0.00040684513   -231.09129     9.129762     9.129762     9.129762 
  582000  0.050343262    -3.271355   -231.09171 0.00040345739   -231.09131    9.1298563    9.1298563    9.1298563 
  583000  0.049813754    5.6032022   -231.09173 0.00039921385   -231.09133    9.1298433    9.1298433    9.1298433 
  584000  0.049453741    12.233517   -231.09174 0.00039632866   -231.09135    9.1298333    9.1298333    9.1298333 
  585000  0.049088778    16.651097   -231.09176 0.0003934038   -231.09136    9.1298256    9.1298256    9.1298256 
  586000  0.048433469     26.03408   -231.09177 0.00038815207   -231.09138    9.1298825    9.1298825    9.1298825 
  587000  0.047773068    21.261266   -231.09178 0.00038285953    -231.0914    9.1298949    9.1298949    9.1298949 
  588000  0.046907201    33.644216   -231.09179 0.00037592036   -231.09142     9.130033     9.130033     9.130033 
  589000  0.045961316    4.4472914    -231.0918 0.00036833992   -231.09144    9.1299354    9.1299354    9.1299354 
  590000  0.045004493    34.048403   -231.09181 0.00036067181   -231.09145    9.1297966    9.1297966    9.1297966 
  591000  0.043732489    8.0028915   -231.09182 0.00035047781   -231.09147    9.1297806    9.1297806    9.1297806 
  592000  0.042262767     15.40058   -231.09182 0.00033869927   -231.09149    9.1297688    9.1297688    9.1297688 
  593000  0.040811711   -58.771528   -231.09183 0.00032707031    -231.0915    9.1299344    9.1299344    9.1299344 
  594000   0.03934165    49.713304   -231.09183 0.00031528906   -231.09152    9.1299325    9.1299325    9.1299325 
  595000  0.038119772   -60.432302   -231.09183 0.00030549677   -231.09153    9.1300216    9.1300216    9.1300216 
  596000  0.036970203   -33.987641   -231.09184 0.00029628397   -231.09154    9.1300443    9.1300443    9.1300443 
  597000  0.036008105   -27.019709   -231.09184 0.0002885736   -231.09156    9.1300305    9.1300305    9.1300305 
  598000  0.035096307   -1.0986405   -231.09185 0.00028126633   -231.09157    9.1298957    9.1298957    9.1298957 
  599000  0.034120391   -3.1871171   -231.09185 0.00027344521   -231.09158    9.1298992    9.1298992    9.1298992 
  600000  0.033494523   -4.6454485   -231.09186 0.00026842942   -231.09159    9.1299014    9.1299014    9.1299014 
  601000  0.032908677    -14.24413   -231.09187 0.00026373439    -231.0916    9.1299228    9.1299228    9.1299228 
  602000  0.032321904    -21.66315   -231.09187 0.0002590319   -231.09161    9.1299409    9.1299409    9.1299409 
  603000  0.031859989   -25.561444   -231.09188 0.00025533006   -231.09163    9.1299509    9.1299509    9.1299509 
  604000  0.031273165   -6.6184906   -231.09189 0.00025062718   -231.09164    9.1298334    9.1298334    9.1298334 
  605000  0.030652152    44.522113   -231.09189 0.0002456503   -231.09165    9.1298001    9.1298001    9.1298001 
  606000  0.029973948   -48.555973    -231.0919 0.00024021508   -231.09166    9.1300097    9.1300097    9.1300097 
  607000  0.029398387   -46.663279    -231.0919 0.00023560246   -231.09167    9.1300099    9.1300099    9.1300099 
  608000  0.028855908   -6.7891059   -231.09191 0.00023125496   -231.09168    9.1300047    9.1300047    9.1300047 
  609000  0.028357878  -0.30109187   -231.09191 0.00022726369   -231.09169    9.1299952    9.1299952    9.1299952 
  610000  0.027844065    15.588284   -231.09192 0.00022314593    -231.0917    9.1299645    9.1299645    9.1299645 
  611000   0.02718449    22.759742   -231.09192 0.00021786001    -231.0917    9.1298758    9.1298758    9.1298758 
  612000   0.02645319   -46.794274   -231.09193 0.00021199927   -231.09171    9.1299582    9.1299582    9.1299582 
  613000  0.025838141   -19.343123   -231.09193 0.00020707019   -231.09172    9.1299823    9.1299823    9.1299823 
  614000  0.025432308    6.7626188   -231.09193 0.0002038178   -231.09173    9.1300082    9.1300082    9.1300082 
  615000  0.025036601    27.976748   -231.09194 0.00020064655   -231.09174    9.1299664    9.1299664    9.1299664 
  616000  0.024652488    6.7929002   -231.09194 0.00019756821   -231.09175    9.1301004    9.1301004    9.1301004 
  617000  0.024248637   -4.9561581   -231.09195 0.00019433171   -231.09175    9.1301362    9.1301362    9.1301362 
  618000   0.02414453    42.771495   -231.09195 0.00019349738   -231.09176    9.1301165    9.1301165    9.1301165 
  619000  0.023917044   -26.125301   -231.09196 0.00019167428   -231.09177    9.1301233    9.1301233    9.1301233 
  620000  0.023930837   -18.675236   -231.09197 0.00019178481   -231.09178    9.1301156    9.1301156    9.1301156 
  621000  0.024013406    42.469628   -231.09198 0.00019244653   -231.09178    9.1300653    9.1300653    9.1300653 
  622000  0.023963418   -13.697269   -231.09198 0.00019204592   -231.09179    9.1301208    9.1301208    9.1301208 
  623000  0.024153708    8.1095363   -231.09199 0.00019357093    -231.0918     9.130158     9.130158     9.130158 
  624000  0.024119977    2.4712101     -231.092 0.00019330061   -231.09181    9.1301755    9.1301755    9.1301755 
  625000  0.024017798   -56.861538     -231.092 0.00019248173   -231.09181    9.1303139    9.1303139    9.1303139 
  626000  0.023947805    59.807824   -231.09201 0.0001919208   -231.09182     9.130215     9.130215     9.130215 
  627000  0.023819278   -34.248251   -231.09202 0.00019089077   -231.09183    9.1302714    9.1302714    9.1302714 
  628000  0.023557935    32.642599   -231.09202 0.00018879633   -231.09183    9.1302017    9.1302017    9.1302017 
  629000  0.023123327    14.184773   -231.09203 0.00018531333   -231.09184    9.1301649    9.1301649    9.1301649 
  630000  0.022562659    -14.61432   -231.09203 0.00018082006   -231.09185    9.1302316    9.1302316    9.1302316 
  631000  0.022239688   -71.847833   -231.09203 0.00017823173   -231.09185    9.1302835    9.1302835    9.1302835 
  632000  0.021740097   -25.760973   -231.09203 0.00017422795   -231.09186    9.1304327    9.1304327    9.1304327 
  633000  0.021102867    7.4942463   -231.09203 0.0001691211   -231.09187    9.1304346    9.1304346    9.1304346 
  634000  0.020730317   -11.867003   -231.09204 0.00016613543   -231.09187    9.1304067    9.1304067    9.1304067 
  635000  0.020473214   -11.961043   -231.09204 0.00016407497   -231.09188     9.130415     9.130415     9.130415 
  636000  0.020217023    1.0883179   -231.09204 0.00016202183   -231.09188     9.130316     9.130316     9.130316 
  637000   0.02003357    32.643259   -231.09205 0.00016055162   -231.09189    9.1303344    9.1303344    9.1303344 
  638000  0.019998015  -0.28948076   -231.09205 0.00016026667   -231.09189     9.130421     9.130421     9.130421 
  639000  0.019809014    78.987799   -231.09206 0.00015875199    -231.0919    9.1304955    9.1304955    9.1304955 
  640000  0.019969302   -40.987589   -231.09206 0.00016003657    -231.0919    9.1306996    9.1306996    9.1306996 
  641000  0.020445495   0.87905968   -231.09207 0.00016385283   -231.09191    9.1306209    9.1306209    9.1306209 
  642000  0.020772579    2.4828394   -231.09208 0.00016647412   -231.09192    9.1305518    9.1305518    9.1305518 
  643000  0.020840647    9.7776369   -231.09209 0.00016701964   -231.09192    9.1305472    9.1305472    9.1305472 
  644000  0.020878668   -14.911185   -231.09209 0.00016732434   -231.09193     9.130613     9.130613     9.130613 
  645000  0.020953555   -13.756183    -231.0921 0.00016792449   -231.09193      9.13062      9.13062      9.13062 
  646000  0.020826264    26.369718    -231.0921 0.00016690437   -231.09194     9.130539     9.130539     9.130539 
  647000  0.020591788   -28.639265   -231.09211 0.00016502525   -231.09194    9.1305904    9.1305904    9.1305904 
  648000  0.020209725    -49.94981   -231.09211 0.00016196334   -231.09195    9.1306431    9.1306431    9.1306431 
  649000  0.019722948    9.6759064   -231.09211 0.00015806225   -231.09195     9.130512     9.130512     9.130512 
  650000  0.018900049  -0.42640843   -231.09211 0.00015146743   -231.09196     9.130539     9.130539     9.130539 
  651000  0.018322312    13.413455   -231.09211 0.00014683737   -231.09196    9.1305105    9.1305105    9.1305105 
  652000   0.01760596    11.701851   -231.09211 0.00014109644   -231.09197    9.1305176    9.1305176    9.1305176 
  653000  0.017060091    16.092624   -231.09211 0.00013672177   -231.09197    9.1305093    9.1305093    9.1305093 
  654000  0.016785411    17.520779   -231.09211 0.00013452045   -231.09198     9.130506     9.130506     9.130506 
  655000  0.016455201    14.528888   -231.09211 0.0001318741   -231.09198    9.1305124    9.1305124    9.1305124 
  656000  0.016203974    15.330843   -231.09211 0.00012986074   -231.09198      9.13051      9.13051      9.13051 
  657000  0.016028903  -0.69234684   -231.09212 0.0001284577   -231.09199    9.1304651    9.1304651    9.1304651 
  658000  0.015803095   -3.8475765   -231.09212 0.00012664804   -231.09199    9.1304709    9.1304709    9.1304709 
  659000  0.015659479 -0.046363918   -231.09212 0.00012549709   -231.09199    9.1305417    9.1305417    9.1305417 
  660000  0.015618872   -2.9436671   -231.09212 0.00012517166     -231.092    9.1305493    9.1305493    9.1305493 
  661000  0.015688073    7.3021156   -231.09213 0.00012572624     -231.092    9.1304476    9.1304476    9.1304476 
  662000  0.015483002   -1.4327622   -231.09213 0.00012408277   -231.09201    9.1305492    9.1305492    9.1305492 
  663000  0.015201584   -3.0234219   -231.09213 0.00012182745   -231.09201    9.1305544    9.1305544    9.1305544 
  664000  0.014756898    8.5664207   -231.09213 0.00011826369   -231.09201    9.1304493    9.1304493    9.1304493 
  665000  0.014104617   -27.647772   -231.09213 0.00011303622   -231.09202    9.1305329    9.1305329    9.1305329 
  666000  0.013398178   -19.835104   -231.09213 0.00010737472   -231.09202    9.1305958    9.1305958    9.1305958 
[...]
  987000    0.1973395    2.3562621   -231.09154 0.0015815042   -231.08996    9.1303278    9.1303278    9.1303278 
  988000   0.20535898    109.00566   -231.09155 0.0016457734   -231.08991    9.1300849    9.1300849    9.1300849 
  989000   0.20623008    100.36268   -231.09151 0.0016527544   -231.08985    9.1301048    9.1301048    9.1301048 
  990000   0.19923903    57.501236    -231.0914 0.0015967273    -231.0898    9.1302798    9.1302798    9.1302798 
  991000   0.18829205    27.464853   -231.09126 0.0015089968   -231.08975    9.1302611    9.1302611    9.1302611 
  992000   0.18051918   -45.277006   -231.09115  0.001446704    -231.0897    9.1301839    9.1301839    9.1301839 
  993000   0.17970172    22.549772   -231.09109 0.0014401527   -231.08965    9.1301923    9.1301923    9.1301923 
  994000   0.18292262    30.921968   -231.09107 0.0014659654    -231.0896    9.1301868    9.1301868    9.1301868 
  995000   0.18403589     69.98071   -231.09103 0.0014748874   -231.08956    9.1300424    9.1300424    9.1300424 
  996000   0.18175048    48.040987   -231.09096 0.0014565718   -231.08951    9.1301251    9.1301251    9.1301251 
  997000   0.18060595    68.981449   -231.09091 0.0014473994   -231.08946    9.1301111    9.1301111    9.1301111 
  998000   0.18590271    56.717286    -231.0909 0.0014898483   -231.08941    9.1303253    9.1303253    9.1303253 
  999000   0.19996264   -93.306558   -231.09096 0.0016025264   -231.08936    9.1304209    9.1304209    9.1304209 
 1000000    0.2176347     7.020965   -231.09104 0.0017441526    -231.0893    9.1303572    9.1303572    9.1303572 
 1001000   0.23139796    54.872703   -231.09109 0.0018544531   -231.08924    9.1303309    9.1303309    9.1303309 
 1002000   0.23390709    18.661583   -231.09105 0.0018745616   -231.08917    9.1302463    9.1302463    9.1302463 
 1003000    0.2267421    25.729382   -231.09093 0.0018171404   -231.08911    9.1302268    9.1302268    9.1302268 
 1004000   0.21871357   -4.9538413    -231.0908 0.0017527987   -231.08905    9.1302174    9.1302174    9.1302174 
 1005000   0.21630081    26.353602   -231.09072 0.0017334626   -231.08899    9.1302303    9.1302303    9.1302303 
 1006000   0.22079659    61.429126    -231.0907 0.0017694924   -231.08893    9.1300842    9.1300842    9.1300842 
 1007000   0.22933787    21.481593    -231.0907 0.0018379433   -231.08887    9.1300954    9.1300954    9.1300954 
 1008000   0.23748578    5.5802945    -231.0907 0.0019032417    -231.0888    9.1302029    9.1302029    9.1302029 
 1009000   0.24484569   -76.049682   -231.09069  0.001962225   -231.08873    9.1303726    9.1303726    9.1303726 
 1010000   0.25354903   -64.700047   -231.09069 0.0020319747   -231.08866    9.1303322    9.1303322    9.1303322 
 1011000   0.26473847   -50.252974   -231.09071 0.0021216483   -231.08859    9.1302775    9.1302775    9.1302775 
 1012000   0.27589648   -32.584024   -231.09072   0.00221107   -231.08851    9.1302111    9.1302111    9.1302111 
 1013000   0.28185724   -98.855555   -231.09069 0.0022588403   -231.08843    9.1302498    9.1302498    9.1302498 
 1014000   0.27912506    72.887203   -231.09059 0.0022369442   -231.08835     9.130187     9.130187     9.130187 
 1015000   0.27245353    1.2552694   -231.09046 0.0021834777   -231.08827    9.1302656    9.1302656    9.1302656 
 1016000   0.26533705    13.184929   -231.09032 0.0021264454   -231.08819    9.1303246    9.1303246    9.1303246 
 1017000   0.26196353   -11.764178   -231.09022 0.0020994095   -231.08812    9.1303178    9.1303178    9.1303178 
 1018000   0.26359099   -13.986289   -231.09016 0.0021124522   -231.08804    9.1303375    9.1303375    9.1303375 
 1019000     0.268278   -15.075792   -231.09012 0.0021500145   -231.08797    9.1303488    9.1303488    9.1303488 
 1020000   0.27365662   -77.619826   -231.09008 0.0021931194   -231.08789     9.130403     9.130403     9.130403 
 1021000   0.28039862   -5.1118202   -231.09005 0.0022471507   -231.08781    9.1302462    9.1302462    9.1302462 
 1022000   0.29052389    14.602641   -231.09005 0.0023282959   -231.08772    9.1303664    9.1303664    9.1303664 
 1023000    0.3043341    12.600574   -231.09007 0.0024389728   -231.08764    9.1302943    9.1302943    9.1302943 
 1024000   0.32232553    9.5376985   -231.09013 0.0025831584   -231.08754    9.1303014    9.1303014    9.1303014 
 1025000   0.34240695    5.7012474   -231.09019 0.0027440935   -231.08745    9.1302422    9.1302422    9.1302422 
 1026000   0.36291202   -18.679009   -231.09025 0.0029084238   -231.08734    9.1302322    9.1302322    9.1302322 
 1027000   0.38109193    14.097261   -231.09029 0.0030541199   -231.08723    9.1301019    9.1301019    9.1301019 
 1028000   0.39399006   -58.797738   -231.09027 0.0031574871   -231.08712    9.1303818    9.1303818    9.1303818 
 1029000   0.40480034   -65.899212   -231.09024 0.0032441221     -231.087     9.130504     9.130504     9.130504 
 1030000   0.42052247   -45.054548   -231.09025 0.0033701213   -231.08688    9.1304665    9.1304665    9.1304665 
 1031000   0.43932474    -57.04419   -231.09027 0.0035208052   -231.08675    9.1305623    9.1305623    9.1305623 
 1032000   0.45495434   -81.573101   -231.09026 0.0036460628   -231.08661    9.1306787    9.1306787    9.1306787 
 1033000   0.46589472   -111.06507   -231.09021 0.0037337404   -231.08648    9.1307091    9.1307091    9.1307091 
 1034000   0.47323357   -64.135097   -231.09013 0.0037925549   -231.08634    9.1304852    9.1304852    9.1304852 
 1035000   0.47132151   -67.573386   -231.08997 0.0037772314   -231.08619    9.1302241    9.1302241    9.1302241 
 1036000   0.46603981   -63.677059   -231.08979 0.0037349031   -231.08605    9.1302273    9.1302273    9.1302273 
 1037000   0.45900996   -52.623667   -231.08959  0.003678565   -231.08591    9.1302244    9.1302244    9.1302244 
 1038000   0.45198345    -37.96398    -231.0894 0.0036222536   -231.08578    9.1302194    9.1302194    9.1302194 
 1039000    0.4482292   -20.928085   -231.08923 0.0035921666   -231.08564    9.1303784    9.1303784    9.1303784 
 1040000   0.45307174    15.257658   -231.08914 0.0036309754   -231.08551    9.1304773    9.1304773    9.1304773 
 1041000   0.46575402   -1.0513888    -231.0891 0.0037326128   -231.08537    9.1305295    9.1305295    9.1305295 
 1042000   0.47882764    1.1997863   -231.08906 0.0038373865   -231.08522    9.1306126    9.1306126    9.1306126 
 1043000   0.48673076    45.616553   -231.08898 0.0039007231   -231.08508    9.1305249    9.1305249    9.1305249 
 1044000   0.48318596    33.678138    -231.0888 0.0038723146   -231.08493    9.1308187    9.1308187    9.1308187 
 1045000   0.47378152    63.037951   -231.08858 0.0037969462   -231.08478    9.1307041    9.1307041    9.1307041 
 1046000   0.46818065    90.799221   -231.08839 0.0037520601   -231.08464    9.1307402    9.1307402    9.1307402 
 1047000    0.4735031     90.84722   -231.08829 0.0037947149    -231.0845    9.1306335    9.1306335    9.1306335 
 1048000   0.48422425   -100.98819   -231.08823 0.0038806356   -231.08435    9.1307464    9.1307464    9.1307464 
 1049000   0.49116044   -58.676355   -231.08814 0.0039362231    -231.0842    9.1304332    9.1304332    9.1304332 
 1050000   0.49778508   -73.011993   -231.08804 0.0039893138   -231.08405     9.130407     9.130407     9.130407 
 1051000   0.51363933   -50.198952   -231.08801 0.0041163719    -231.0839    9.1304732    9.1304732    9.1304732 
 1052000   0.54135605    -15.53398   -231.08807 0.0043384972   -231.08374    9.1304874    9.1304874    9.1304874 
 1053000   0.58609611   -31.485192   -231.08826 0.0046970498   -231.08356    9.1305982    9.1305982    9.1305982 
 1054000   0.63491582   -53.524925   -231.08846 0.0050882973   -231.08337    9.1306373    9.1306373    9.1306373 
 1055000   0.66943908    169.30796   -231.08854 0.0053649711   -231.08317    9.1302121    9.1302121    9.1302121 
 1056000   0.68675584    92.759292   -231.08847 0.0055037499   -231.08296    9.1302508    9.1302508    9.1302508 
 1057000   0.69868625    37.592996   -231.08835 0.0055993617   -231.08275    9.1302511    9.1302511    9.1302511 
 1058000   0.72646369    12.688431   -231.08835 0.0058219737   -231.08253    9.1302583    9.1302583    9.1302583 
 1059000   0.76578792   -12.336939   -231.08844 0.0061371232    -231.0823    9.1302685    9.1302685    9.1302685 
 1060000    0.7930439   -14.733476   -231.08841 0.0063555561   -231.08206    9.1301487    9.1301487    9.1301487 
 1061000   0.78803964    24.342408   -231.08813 0.0063154513   -231.08181     9.130214     9.130214     9.130214 
 1062000   0.75553105    43.882817   -231.08763 0.0060549233   -231.08158    9.1303624    9.1303624    9.1303624 
 1063000   0.72819042    24.599688   -231.08718  0.005835812   -231.08135    9.1304248    9.1304248    9.1304248 
 1064000   0.71964165   -8.3301121   -231.08689  0.005767301   -231.08113    9.1305391    9.1305391    9.1305391 
 1065000   0.72526918    1.0229625   -231.08672 0.0058124008    -231.0809    9.1308169    9.1308169    9.1308169 
 1066000   0.72931076    6.4536519   -231.08652 0.0058447905   -231.08068    9.1308709    9.1308709    9.1308709 
 1067000   0.72562289   -127.43485   -231.08627 0.0058152355   -231.08045    9.1314971    9.1314971    9.1314971 
 1068000   0.72282376   -92.484969   -231.08603 0.0057928028   -231.08023    9.1313209    9.1313209    9.1313209 
 1069000   0.73845274   -92.099574   -231.08593 0.0059180555   -231.08001    9.1314149    9.1314149    9.1314149 
 1070000   0.77791315   -112.32823   -231.08601 0.0062342964   -231.07978     9.131451     9.131451     9.131451 
 1071000   0.83064078   -111.96401   -231.08619 0.0066568623   -231.07953    9.1312649    9.1312649    9.1312649 
 1072000   0.87430736   -137.08746   -231.08627 0.0070068119   -231.07927    9.1310515    9.1310515    9.1310515 
 1073000   0.89726502   -71.425423   -231.08618 0.0071907976   -231.07899     9.130644     9.130644     9.130644 
 1074000   0.90668365   -72.771154   -231.08598 0.0072662798   -231.07871    9.1306226    9.1306226    9.1306226 
 1075000   0.90329278   -70.600455   -231.08568 0.0072391048   -231.07844    9.1305221    9.1305221    9.1305221 
 1076000   0.89365366   -73.397241   -231.08532 0.0071618557   -231.07816    9.1305987    9.1305987    9.1305987 
 1077000   0.88115531    -36.48036   -231.08495 0.0070616923   -231.07789    9.1304768    9.1304768    9.1304768 
 1078000   0.87581073   -30.467515   -231.08464 0.0070188602   -231.07762    9.1303372    9.1303372    9.1303372 
 1079000   0.89227891    7.4575619    -231.0845 0.0071508383   -231.07735    9.1302323    9.1302323    9.1302323 
 1080000   0.94374662    38.620825   -231.08463 0.0075633072   -231.07707     9.130142     9.130142     9.130142 
 1081000    1.0174063    60.869933   -231.08492  0.008153625   -231.07677    9.1299793    9.1299793    9.1299793 
 1082000    1.0787415    108.78885    -231.0851 0.0086451733   -231.07645    9.1297776    9.1297776    9.1297776 
 1083000    1.1058144    126.25947   -231.08498 0.0088621396   -231.07612    9.1298002    9.1298002    9.1298002 
 1084000    1.0886164    181.83488   -231.08451 0.0087243126   -231.07578    9.1296876    9.1296876    9.1296876 
 1085000    1.0525746    114.44711   -231.08389 0.0084354687   -231.07546    9.1299682    9.1299682    9.1299682 
 1086000    1.0360056     112.8682   -231.08345 0.0083026827   -231.07514    9.1299925    9.1299925    9.1299925 
 1087000    1.0540825    97.918544   -231.08328  0.008447553   -231.07483    9.1300143    9.1300143    9.1300143 
 1088000    1.0921874    177.92601   -231.08326 0.0087529309    -231.0745     9.130095     9.130095     9.130095 
 1089000    1.1271613    119.18337    -231.0832 0.0090332163   -231.07417    9.1302444    9.1302444    9.1302444 
 1090000    1.1660349    103.61604   -231.08317 0.0093447539   -231.07383    9.1302969    9.1302969    9.1302969 
 1091000    1.2019746    20.098378    -231.0831 0.0096327799   -231.07347    9.1304822    9.1304822    9.1304822 
 1092000     1.220849    9.4818223   -231.08289 0.0097840415   -231.07311    9.1307178    9.1307178    9.1307178 
 1093000    1.2106297   -27.305666   -231.08245 0.0097021423   -231.07274    9.1306618    9.1306618    9.1306618 
 1094000    1.1788146   -48.390181   -231.08183  0.009447172   -231.07239    9.1307401    9.1307401    9.1307401 
 1095000    1.1521249   -39.304267   -231.08127 0.0092332773   -231.07204    9.1305652    9.1305652    9.1305652 
 1096000    1.1532657   -33.637958   -231.08094 0.0092424202    -231.0717    9.1305274    9.1305274    9.1305274 
 1097000    1.1883576   -48.832591   -231.08088 0.0095236509   -231.07135    9.1304379    9.1304379    9.1304379 
 1098000    1.2486599   -49.587977     -231.081  0.010006922   -231.07099    9.1307252    9.1307252    9.1307252 
 1099000    1.3216847   -60.601242   -231.08121  0.010592152   -231.07062    9.1305862    9.1305862    9.1305862 
 1100000     1.410714   -38.579597   -231.08152  0.011305644   -231.07021    9.1308035    9.1308035    9.1308035 
 1101000    1.5148023   -60.010328   -231.08193  0.012139821   -231.06979     9.130783     9.130783     9.130783 
 1102000    1.6107166    10.480806   -231.08224  0.012908491   -231.06933    9.1305407    9.1305407    9.1305407 
 1103000    1.6696961    48.830272   -231.08223   0.01338116   -231.06885    9.1303827    9.1303827    9.1303827 
 1104000    1.6867681    33.283957   -231.08188  0.013517977   -231.06837    9.1304786    9.1304786    9.1304786 
 1105000    1.6809609    52.926481   -231.08135  0.013471437   -231.06788    9.1303459    9.1303459    9.1303459 
 1106000    1.6891932     103.9368   -231.08094  0.013537412    -231.0674    9.1301896    9.1301896    9.1301896 
 1107000    1.7252066    89.209923   -231.08074  0.013826028   -231.06692    9.1304462    9.1304462    9.1304462 
 1108000    1.7605208    77.164502   -231.08053  0.014109041   -231.06642    9.1305828    9.1305828    9.1305828 
 1109000    1.7642451    57.620273   -231.08006  0.014138888   -231.06593    9.1306087    9.1306087    9.1306087 
 1110000    1.7149108    81.056753   -231.07918  0.013743517   -231.06544    9.1305385    9.1305385    9.1305385 
 1111000    1.6325166    175.99283   -231.07806  0.013083198   -231.06497    9.1301847    9.1301847    9.1301847 
 1112000    1.5694358    224.19193   -231.07711  0.012577661   -231.06453    9.1300923    9.1300923    9.1300923 
 1113000    1.5634044    225.54728   -231.07663  0.012529324    -231.0641    9.1302741    9.1302741    9.1302741 
 1114000    1.6036677    199.59038   -231.07652     0.012852   -231.06367    9.1303221    9.1303221    9.1303221 
 1115000    1.6540436    152.93901   -231.07648  0.013255718   -231.06323    9.1304211    9.1304211    9.1304211 
 1116000    1.6820752    297.08882   -231.07625  0.013480368   -231.06277      9.13019      9.13019      9.13019 
 1117000    1.7171216    303.24151   -231.07608  0.013761234   -231.06231    9.1303367    9.1303367    9.1303367 
 1118000     1.784855    309.56749   -231.07615  0.014304058   -231.06184    9.1302147    9.1302147    9.1302147 
 1119000    1.8941845    356.95841   -231.07653  0.015180239   -231.06135    9.1302354    9.1302354    9.1302354 
 1120000    1.9991239    312.85957   -231.07686  0.016021237   -231.06084    9.1300663    9.1300663    9.1300663 
 1121000    2.0544686    308.58162   -231.07677  0.016464777    -231.0603    9.1302318    9.1302318    9.1302318 
 1122000     2.060088     254.4384   -231.07628  0.016509811   -231.05977    9.1301668    9.1301668    9.1301668 
 1123000    2.0670913       147.74   -231.07581  0.016565936   -231.05924    9.1304073    9.1304073    9.1304073 
 1124000    2.1035998    51.712323   -231.07557   0.01685852   -231.05871    9.1306689    9.1306689    9.1306689 
 1125000    2.1465835    57.846486   -231.07536  0.017202997   -231.05816    9.1306194    9.1306194    9.1306194 
 1126000    2.1480257    10.271423   -231.07483  0.017214555   -231.05761     9.130692     9.130692     9.130692 
 1127000    2.1037349   -50.798161   -231.07393  0.016859603   -231.05707    9.1309038    9.1309038    9.1309038 
 1128000    2.0723758   -107.77166   -231.07316  0.016608287   -231.05655    9.1311664    9.1311664    9.1311664 
 1129000    2.1221733   -85.637009   -231.07304   0.01700737   -231.05603    9.1309444    9.1309444    9.1309444 
 1130000    2.2660375   -91.177708   -231.07365  0.018160317   -231.05549    9.1309041    9.1309041    9.1309041 
 1131000    2.4283092   -101.04496   -231.07438  0.019460783   -231.05492    9.1309912    9.1309912    9.1309912 
 1132000    2.5062003   -46.825257   -231.07441  0.020085013   -231.05432    9.1306344    9.1306344    9.1306344 
 1133000    2.4880721   -28.374364   -231.07367  0.019939731   -231.05373    9.1307016    9.1307016    9.1307016 
 1134000    2.4616191    42.153476   -231.07287  0.019727733   -231.05314    9.1304751    9.1304751    9.1304751 
 1135000    2.5161398    76.253846   -231.07273  0.020164669   -231.05256     9.130369     9.130369     9.130369 
 1136000    2.6497812    133.43286    -231.0732  0.021235688   -231.05197    9.1302401    9.1302401    9.1302401 
 1137000    2.7501615    122.07075   -231.07339  0.022040149   -231.05135    9.1302005    9.1302005    9.1302005 
 1138000     2.726558     170.2168   -231.07258  0.021850988   -231.05073    9.1302244    9.1302244    9.1302244 
 1139000    2.5905921    213.57006    -231.0709  0.020761339   -231.05014    9.1303013    9.1303013    9.1303013 
 1140000    2.4571444    174.97875   -231.06928  0.019691872   -231.04959    9.1304008    9.1304008    9.1304008 
 1141000     2.438482    120.41954    -231.0686  0.019542309   -231.04906    9.1306841    9.1306841    9.1306841 
 1142000    2.5339691    136.59681   -231.06884  0.020307555   -231.04853     9.130448     9.130448     9.130448 
 1143000    2.6398323    120.45755   -231.06914  0.021155956   -231.04798    9.1304039    9.1304039    9.1304039 
 1144000    2.6499067    151.54665   -231.06866  0.021236694   -231.04743    9.1304126    9.1304126    9.1304126 
 1145000    2.6060253    126.71169   -231.06777  0.020885023   -231.04689     9.130371     9.130371     9.130371 
 1146000    2.6269409   -5.1177945   -231.06741  0.021052643   -231.04636    9.1305887    9.1305887    9.1305887 
 1147000    2.7868506   -65.388137   -231.06815   0.02233418   -231.04581    9.1307056    9.1307056    9.1307056 
 1148000    3.0132482   -73.752218   -231.06939   0.02414856   -231.04524    9.1307535    9.1307535    9.1307535 
 1149000    3.1606759   -118.13333   -231.06997  0.025330064   -231.04464     9.130758     9.130758     9.130758 
 1150000    3.1234791   -161.05203   -231.06907  0.025031965   -231.04403    9.1310949    9.1310949    9.1310949 
Loop time of 128.417 on 1 procs for 1000000 steps with 63 atoms

Performance: 6.728 ns/day, 3.567 hours/ns, 7787.103 timesteps/s
99.4% CPU use with 1 MPI tasks x 1 OpenMP threads

MPI task timing breakdown:
Section |  min time  |  avg time  |  max time  |%varavg| %total
---------------------------------------------------------------
Pair    | 120.05     | 120.05     | 120.05     |   0.0 | 93.48
Neigh   | 0.029443   | 0.029443   | 0.029443   |   0.0 |  0.02
Comm    | 2.4688     | 2.4688     | 2.4688     |   0.0 |  1.92
Output  | 0.14808    | 0.14808    | 0.14808    |   0.0 |  0.12
Modify  | 4.9781     | 4.9781     | 4.9781     |   0.0 |  3.88
Other   |            | 0.7467     |            |       |  0.58

Nlocal:    63 ave 63 max 63 min
Histogram: 1 0 0 0 0 0 0 0 0 0
Nghost:    852 ave 852 max 852 min
Histogram: 1 0 0 0 0 0 0 0 0 0
Neighs:    2911 ave 2911 max 2911 min
Histogram: 1 0 0 0 0 0 0 0 0 0

Total # of neighbors = 2911
Ave neighs/atom = 46.2063
Neighbor list builds = 353
Dangerous builds = 75

unfix 		2

thermo 		1000
#thermo_style 	custom step temp press pe ke lx ly lz c_ensprs[1] c_ensprs[2] c_ensprs[3]

#fix		3 all npt temp 1000.0 1000.0 1000.0 x 1000.0 1000.0 1000.0

#run 		150000

Total wall time: 0:03:17
