Lammps Data File for CuNi

2048 	atoms

2	atom types

0.0	28.8	xlo xhi
0.0	28.8	ylo yhi
0.0	28.8	zlo zhi
0.0	0.0	0.0	xy xz yz

Atoms

	1	2	0.0	0.0	0.0
	2	2	1.8	1.8	0.0
	3	2	0.0	1.8	1.8
	4	2	1.8	0.0	1.8
	5	1	0.0	0.0	3.6
	6	2	1.8	1.8	3.6
	7	1	0.0	1.8	5.4
	8	2	1.8	0.0	5.4
	9	1	0.0	0.0	7.2
	10	2	1.8	1.8	7.2
	11	2	0.0	1.8	9.0
	12	1	1.8	0.0	9.0
	13	1	0.0	0.0	10.8
	14	2	1.8	1.8	10.8
	15	1	0.0	1.8	12.6
	16	1	1.8	0.0	12.6
	17	1	0.0	0.0	14.4
	18	2	1.8	1.8	14.4
	19	2	0.0	1.8	16.2
	20	2	1.8	0.0	16.2
	21	2	0.0	0.0	18.0
	22	2	1.8	1.8	18.0
	23	1	0.0	1.8	19.8
	24	2	1.8	0.0	19.8
	25	2	0.0	0.0	21.6
	26	2	1.8	1.8	21.6
	27	2	0.0	1.8	23.4
	28	1	1.8	0.0	23.4
	29	2	0.0	0.0	25.2
	30	2	1.8	1.8	25.2
	31	2	0.0	1.8	27.0
	32	1	1.8	0.0	27.0
	33	2	0.0	3.6	0.0
	34	2	1.8	5.4	0.0
	35	2	0.0	5.4	1.8
	36	2	1.8	3.6	1.8
	37	2	0.0	3.6	3.6
	38	1	1.8	5.4	3.6
	39	2	0.0	5.4	5.4
	40	2	1.8	3.6	5.4
	41	1	0.0	3.6	7.2
	42	1	1.8	5.4	7.2
	43	1	0.0	5.4	9.0
	44	2	1.8	3.6	9.0
	45	2	0.0	3.6	10.8
	46	2	1.8	5.4	10.8
	47	1	0.0	5.4	12.6
	48	2	1.8	3.6	12.6
	49	2	0.0	3.6	14.4
	50	1	1.8	5.4	14.4
	51	2	0.0	5.4	16.2
	52	2	1.8	3.6	16.2
	53	2	0.0	3.6	18.0
	54	2	1.8	5.4	18.0
	55	2	0.0	5.4	19.8
	56	2	1.8	3.6	19.8
	57	2	0.0	3.6	21.6
	58	2	1.8	5.4	21.6
	59	2	0.0	5.4	23.4
	60	2	1.8	3.6	23.4
	61	2	0.0	3.6	25.2
	62	2	1.8	5.4	25.2
	63	2	0.0	5.4	27.0
	64	2	1.8	3.6	27.0
	65	2	0.0	7.2	0.0
	66	2	1.8	9.0	0.0
	67	2	0.0	9.0	1.8
	68	2	1.8	7.2	1.8
	69	2	0.0	7.2	3.6
	70	2	1.8	9.0	3.6
	71	2	0.0	9.0	5.4
	72	2	1.8	7.2	5.4
	73	2	0.0	7.2	7.2
	74	2	1.8	9.0	7.2
	75	2	0.0	9.0	9.0
	76	1	1.8	7.2	9.0
	77	1	0.0	7.2	10.8
	78	1	1.8	9.0	10.8
	79	2	0.0	9.0	12.6
	80	2	1.8	7.2	12.6
	81	2	0.0	7.2	14.4
	82	2	1.8	9.0	14.4
	83	2	0.0	9.0	16.2
	84	2	1.8	7.2	16.2
	85	2	0.0	7.2	18.0
	86	2	1.8	9.0	18.0
	87	2	0.0	9.0	19.8
	88	2	1.8	7.2	19.8
	89	1	0.0	7.2	21.6
	90	2	1.8	9.0	21.6
	91	2	0.0	9.0	23.4
	92	1	1.8	7.2	23.4
	93	2	0.0	7.2	25.2
	94	1	1.8	9.0	25.2
	95	2	0.0	9.0	27.0
	96	2	1.8	7.2	27.0
	97	2	0.0	10.8	0.0
	98	1	1.8	12.6	0.0
	99	2	0.0	12.6	1.8
	100	1	1.8	10.8	1.8
	101	1	0.0	10.8	3.6
	102	1	1.8	12.6	3.6
	103	2	0.0	12.6	5.4
	104	2	1.8	10.8	5.4
	105	2	0.0	10.8	7.2
	106	2	1.8	12.6	7.2
	107	2	0.0	12.6	9.0
	108	2	1.8	10.8	9.0
	109	2	0.0	10.8	10.8
	110	1	1.8	12.6	10.8
	111	2	0.0	12.6	12.6
	112	2	1.8	10.8	12.6
	113	2	0.0	10.8	14.4
	114	2	1.8	12.6	14.4
	115	2	0.0	12.6	16.2
	116	2	1.8	10.8	16.2
	117	2	0.0	10.8	18.0
	118	2	1.8	12.6	18.0
	119	2	0.0	12.6	19.8
	120	2	1.8	10.8	19.8
	121	2	0.0	10.8	21.6
	122	2	1.8	12.6	21.6
	123	2	0.0	12.6	23.4
	124	2	1.8	10.8	23.4
	125	1	0.0	10.8	25.2
	126	2	1.8	12.6	25.2
	127	2	0.0	12.6	27.0
	128	2	1.8	10.8	27.0
	129	2	0.0	14.4	0.0
	130	1	1.8	16.2	0.0
	131	2	0.0	16.2	1.8
	132	1	1.8	14.4	1.8
	133	2	0.0	14.4	3.6
	134	2	1.8	16.2	3.6
	135	2	0.0	16.2	5.4
	136	2	1.8	14.4	5.4
	137	2	0.0	14.4	7.2
	138	2	1.8	16.2	7.2
	139	1	0.0	16.2	9.0
	140	2	1.8	14.4	9.0
	141	2	0.0	14.4	10.8
	142	1	1.8	16.2	10.8
	143	2	0.0	16.2	12.6
	144	2	1.8	14.4	12.6
	145	2	0.0	14.4	14.4
	146	1	1.8	16.2	14.4
	147	2	0.0	16.2	16.2
	148	1	1.8	14.4	16.2
	149	1	0.0	14.4	18.0
	150	2	1.8	16.2	18.0
	151	2	0.0	16.2	19.8
	152	2	1.8	14.4	19.8
	153	2	0.0	14.4	21.6
	154	1	1.8	16.2	21.6
	155	2	0.0	16.2	23.4
	156	1	1.8	14.4	23.4
	157	2	0.0	14.4	25.2
	158	2	1.8	16.2	25.2
	159	2	0.0	16.2	27.0
	160	1	1.8	14.4	27.0
	161	2	0.0	18.0	0.0
	162	1	1.8	19.8	0.0
	163	2	0.0	19.8	1.8
	164	2	1.8	18.0	1.8
	165	2	0.0	18.0	3.6
	166	2	1.8	19.8	3.6
	167	2	0.0	19.8	5.4
	168	1	1.8	18.0	5.4
	169	1	0.0	18.0	7.2
	170	2	1.8	19.8	7.2
	171	1	0.0	19.8	9.0
	172	1	1.8	18.0	9.0
	173	2	0.0	18.0	10.8
	174	2	1.8	19.8	10.8
	175	2	0.0	19.8	12.6
	176	1	1.8	18.0	12.6
	177	2	0.0	18.0	14.4
	178	2	1.8	19.8	14.4
	179	2	0.0	19.8	16.2
	180	2	1.8	18.0	16.2
	181	1	0.0	18.0	18.0
	182	2	1.8	19.8	18.0
	183	2	0.0	19.8	19.8
	184	1	1.8	18.0	19.8
	185	1	0.0	18.0	21.6
	186	1	1.8	19.8	21.6
	187	2	0.0	19.8	23.4
	188	1	1.8	18.0	23.4
	189	2	0.0	18.0	25.2
	190	1	1.8	19.8	25.2
	191	2	0.0	19.8	27.0
	192	2	1.8	18.0	27.0
	193	2	0.0	21.6	0.0
	194	2	1.8	23.4	0.0
	195	2	0.0	23.4	1.8
	196	2	1.8	21.6	1.8
	197	2	0.0	21.6	3.6
	198	2	1.8	23.4	3.6
	199	2	0.0	23.4	5.4
	200	2	1.8	21.6	5.4
	201	2	0.0	21.6	7.2
	202	2	1.8	23.4	7.2
	203	2	0.0	23.4	9.0
	204	1	1.8	21.6	9.0
	205	2	0.0	21.6	10.8
	206	2	1.8	23.4	10.8
	207	2	0.0	23.4	12.6
	208	2	1.8	21.6	12.6
	209	2	0.0	21.6	14.4
	210	2	1.8	23.4	14.4
	211	2	0.0	23.4	16.2
	212	2	1.8	21.6	16.2
	213	2	0.0	21.6	18.0
	214	2	1.8	23.4	18.0
	215	2	0.0	23.4	19.8
	216	2	1.8	21.6	19.8
	217	2	0.0	21.6	21.6
	218	1	1.8	23.4	21.6
	219	2	0.0	23.4	23.4
	220	2	1.8	21.6	23.4
	221	2	0.0	21.6	25.2
	222	2	1.8	23.4	25.2
	223	2	0.0	23.4	27.0
	224	2	1.8	21.6	27.0
	225	2	0.0	25.2	0.0
	226	2	1.8	27.0	0.0
	227	2	0.0	27.0	1.8
	228	2	1.8	25.2	1.8
	229	2	0.0	25.2	3.6
	230	2	1.8	27.0	3.6
	231	1	0.0	27.0	5.4
	232	2	1.8	25.2	5.4
	233	2	0.0	25.2	7.2
	234	2	1.8	27.0	7.2
	235	1	0.0	27.0	9.0
	236	2	1.8	25.2	9.0
	237	2	0.0	25.2	10.8
	238	2	1.8	27.0	10.8
	239	1	0.0	27.0	12.6
	240	1	1.8	25.2	12.6
	241	2	0.0	25.2	14.4
	242	2	1.8	27.0	14.4
	243	1	0.0	27.0	16.2
	244	2	1.8	25.2	16.2
	245	2	0.0	25.2	18.0
	246	2	1.8	27.0	18.0
	247	2	0.0	27.0	19.8
	248	2	1.8	25.2	19.8
	249	1	0.0	25.2	21.6
	250	2	1.8	27.0	21.6
	251	2	0.0	27.0	23.4
	252	1	1.8	25.2	23.4
	253	2	0.0	25.2	25.2
	254	2	1.8	27.0	25.2
	255	1	0.0	27.0	27.0
	256	2	1.8	25.2	27.0
	257	2	3.6	0.0	0.0
	258	2	5.4	1.8	0.0
	259	2	3.6	1.8	1.8
	260	2	5.4	0.0	1.8
	261	2	3.6	0.0	3.6
	262	2	5.4	1.8	3.6
	263	2	3.6	1.8	5.4
	264	1	5.4	0.0	5.4
	265	1	3.6	0.0	7.2
	266	2	5.4	1.8	7.2
	267	2	3.6	1.8	9.0
	268	1	5.4	0.0	9.0
	269	1	3.6	0.0	10.8
	270	2	5.4	1.8	10.8
	271	2	3.6	1.8	12.6
	272	2	5.4	0.0	12.6
	273	2	3.6	0.0	14.4
	274	2	5.4	1.8	14.4
	275	1	3.6	1.8	16.2
	276	2	5.4	0.0	16.2
	277	2	3.6	0.0	18.0
	278	1	5.4	1.8	18.0
	279	2	3.6	1.8	19.8
	280	2	5.4	0.0	19.8
	281	2	3.6	0.0	21.6
	282	1	5.4	1.8	21.6
	283	2	3.6	1.8	23.4
	284	1	5.4	0.0	23.4
	285	2	3.6	0.0	25.2
	286	1	5.4	1.8	25.2
	287	2	3.6	1.8	27.0
	288	1	5.4	0.0	27.0
	289	2	3.6	3.6	0.0
	290	2	5.4	5.4	0.0
	291	2	3.6	5.4	1.8
	292	2	5.4	3.6	1.8
	293	2	3.6	3.6	3.6
	294	2	5.4	5.4	3.6
	295	1	3.6	5.4	5.4
	296	1	5.4	3.6	5.4
	297	1	3.6	3.6	7.2
	298	2	5.4	5.4	7.2
	299	1	3.6	5.4	9.0
	300	2	5.4	3.6	9.0
	301	1	3.6	3.6	10.8
	302	1	5.4	5.4	10.8
	303	1	3.6	5.4	12.6
	304	2	5.4	3.6	12.6
	305	2	3.6	3.6	14.4
	306	2	5.4	5.4	14.4
	307	1	3.6	5.4	16.2
	308	2	5.4	3.6	16.2
	309	1	3.6	3.6	18.0
	310	2	5.4	5.4	18.0
	311	1	3.6	5.4	19.8
	312	2	5.4	3.6	19.8
	313	2	3.6	3.6	21.6
	314	2	5.4	5.4	21.6
	315	2	3.6	5.4	23.4
	316	2	5.4	3.6	23.4
	317	2	3.6	3.6	25.2
	318	2	5.4	5.4	25.2
	319	2	3.6	5.4	27.0
	320	2	5.4	3.6	27.0
	321	1	3.6	7.2	0.0
	322	2	5.4	9.0	0.0
	323	2	3.6	9.0	1.8
	324	2	5.4	7.2	1.8
	325	2	3.6	7.2	3.6
	326	2	5.4	9.0	3.6
	327	1	3.6	9.0	5.4
	328	2	5.4	7.2	5.4
	329	1	3.6	7.2	7.2
	330	2	5.4	9.0	7.2
	331	2	3.6	9.0	9.0
	332	2	5.4	7.2	9.0
	333	2	3.6	7.2	10.8
	334	1	5.4	9.0	10.8
	335	2	3.6	9.0	12.6
	336	2	5.4	7.2	12.6
	337	2	3.6	7.2	14.4
	338	2	5.4	9.0	14.4
	339	1	3.6	9.0	16.2
	340	2	5.4	7.2	16.2
	341	2	3.6	7.2	18.0
	342	2	5.4	9.0	18.0
	343	2	3.6	9.0	19.8
	344	2	5.4	7.2	19.8
	345	1	3.6	7.2	21.6
	346	2	5.4	9.0	21.6
	347	1	3.6	9.0	23.4
	348	1	5.4	7.2	23.4
	349	2	3.6	7.2	25.2
	350	1	5.4	9.0	25.2
	351	2	3.6	9.0	27.0
	352	1	5.4	7.2	27.0
	353	1	3.6	10.8	0.0
	354	1	5.4	12.6	0.0
	355	1	3.6	12.6	1.8
	356	2	5.4	10.8	1.8
	357	2	3.6	10.8	3.6
	358	1	5.4	12.6	3.6
	359	2	3.6	12.6	5.4
	360	2	5.4	10.8	5.4
	361	2	3.6	10.8	7.2
	362	2	5.4	12.6	7.2
	363	2	3.6	12.6	9.0
	364	1	5.4	10.8	9.0
	365	2	3.6	10.8	10.8
	366	2	5.4	12.6	10.8
	367	2	3.6	12.6	12.6
	368	1	5.4	10.8	12.6
	369	2	3.6	10.8	14.4
	370	2	5.4	12.6	14.4
	371	2	3.6	12.6	16.2
	372	1	5.4	10.8	16.2
	373	2	3.6	10.8	18.0
	374	2	5.4	12.6	18.0
	375	2	3.6	12.6	19.8
	376	2	5.4	10.8	19.8
	377	2	3.6	10.8	21.6
	378	2	5.4	12.6	21.6
	379	2	3.6	12.6	23.4
	380	2	5.4	10.8	23.4
	381	2	3.6	10.8	25.2
	382	1	5.4	12.6	25.2
	383	2	3.6	12.6	27.0
	384	2	5.4	10.8	27.0
	385	1	3.6	14.4	0.0
	386	2	5.4	16.2	0.0
	387	1	3.6	16.2	1.8
	388	2	5.4	14.4	1.8
	389	2	3.6	14.4	3.6
	390	2	5.4	16.2	3.6
	391	2	3.6	16.2	5.4
	392	2	5.4	14.4	5.4
	393	1	3.6	14.4	7.2
	394	2	5.4	16.2	7.2
	395	2	3.6	16.2	9.0
	396	1	5.4	14.4	9.0
	397	2	3.6	14.4	10.8
	398	1	5.4	16.2	10.8
	399	1	3.6	16.2	12.6
	400	1	5.4	14.4	12.6
	401	2	3.6	14.4	14.4
	402	2	5.4	16.2	14.4
	403	2	3.6	16.2	16.2
	404	2	5.4	14.4	16.2
	405	1	3.6	14.4	18.0
	406	1	5.4	16.2	18.0
	407	1	3.6	16.2	19.8
	408	2	5.4	14.4	19.8
	409	1	3.6	14.4	21.6
	410	2	5.4	16.2	21.6
	411	1	3.6	16.2	23.4
	412	2	5.4	14.4	23.4
	413	2	3.6	14.4	25.2
	414	2	5.4	16.2	25.2
	415	2	3.6	16.2	27.0
	416	2	5.4	14.4	27.0
	417	2	3.6	18.0	0.0
	418	2	5.4	19.8	0.0
	419	2	3.6	19.8	1.8
	420	2	5.4	18.0	1.8
	421	2	3.6	18.0	3.6
	422	2	5.4	19.8	3.6
	423	2	3.6	19.8	5.4
	424	2	5.4	18.0	5.4
	425	1	3.6	18.0	7.2
	426	1	5.4	19.8	7.2
	427	1	3.6	19.8	9.0
	428	2	5.4	18.0	9.0
	429	2	3.6	18.0	10.8
	430	2	5.4	19.8	10.8
	431	2	3.6	19.8	12.6
	432	1	5.4	18.0	12.6
	433	2	3.6	18.0	14.4
	434	1	5.4	19.8	14.4
	435	2	3.6	19.8	16.2
	436	2	5.4	18.0	16.2
	437	2	3.6	18.0	18.0
	438	2	5.4	19.8	18.0
	439	2	3.6	19.8	19.8
	440	2	5.4	18.0	19.8
	441	2	3.6	18.0	21.6
	442	1	5.4	19.8	21.6
	443	2	3.6	19.8	23.4
	444	1	5.4	18.0	23.4
	445	2	3.6	18.0	25.2
	446	2	5.4	19.8	25.2
	447	2	3.6	19.8	27.0
	448	1	5.4	18.0	27.0
	449	1	3.6	21.6	0.0
	450	2	5.4	23.4	0.0
	451	1	3.6	23.4	1.8
	452	2	5.4	21.6	1.8
	453	2	3.6	21.6	3.6
	454	2	5.4	23.4	3.6
	455	2	3.6	23.4	5.4
	456	1	5.4	21.6	5.4
	457	2	3.6	21.6	7.2
	458	1	5.4	23.4	7.2
	459	1	3.6	23.4	9.0
	460	2	5.4	21.6	9.0
	461	1	3.6	21.6	10.8
	462	1	5.4	23.4	10.8
	463	2	3.6	23.4	12.6
	464	1	5.4	21.6	12.6
	465	2	3.6	21.6	14.4
	466	2	5.4	23.4	14.4
	467	2	3.6	23.4	16.2
	468	1	5.4	21.6	16.2
	469	1	3.6	21.6	18.0
	470	2	5.4	23.4	18.0
	471	2	3.6	23.4	19.8
	472	2	5.4	21.6	19.8
	473	2	3.6	21.6	21.6
	474	2	5.4	23.4	21.6
	475	2	3.6	23.4	23.4
	476	1	5.4	21.6	23.4
	477	2	3.6	21.6	25.2
	478	2	5.4	23.4	25.2
	479	2	3.6	23.4	27.0
	480	2	5.4	21.6	27.0
	481	2	3.6	25.2	0.0
	482	2	5.4	27.0	0.0
	483	1	3.6	27.0	1.8
	484	2	5.4	25.2	1.8
	485	2	3.6	25.2	3.6
	486	1	5.4	27.0	3.6
	487	2	3.6	27.0	5.4
	488	2	5.4	25.2	5.4
	489	2	3.6	25.2	7.2
	490	2	5.4	27.0	7.2
	491	2	3.6	27.0	9.0
	492	1	5.4	25.2	9.0
	493	2	3.6	25.2	10.8
	494	2	5.4	27.0	10.8
	495	2	3.6	27.0	12.6
	496	1	5.4	25.2	12.6
	497	1	3.6	25.2	14.4
	498	2	5.4	27.0	14.4
	499	1	3.6	27.0	16.2
	500	2	5.4	25.2	16.2
	501	2	3.6	25.2	18.0
	502	1	5.4	27.0	18.0
	503	2	3.6	27.0	19.8
	504	2	5.4	25.2	19.8
	505	1	3.6	25.2	21.6
	506	2	5.4	27.0	21.6
	507	2	3.6	27.0	23.4
	508	2	5.4	25.2	23.4
	509	2	3.6	25.2	25.2
	510	2	5.4	27.0	25.2
	511	2	3.6	27.0	27.0
	512	2	5.4	25.2	27.0
	513	2	7.2	0.0	0.0
	514	1	9.0	1.8	0.0
	515	1	7.2	1.8	1.8
	516	2	9.0	0.0	1.8
	517	1	7.2	0.0	3.6
	518	1	9.0	1.8	3.6
	519	1	7.2	1.8	5.4
	520	2	9.0	0.0	5.4
	521	2	7.2	0.0	7.2
	522	2	9.0	1.8	7.2
	523	2	7.2	1.8	9.0
	524	1	9.0	0.0	9.0
	525	2	7.2	0.0	10.8
	526	1	9.0	1.8	10.8
	527	2	7.2	1.8	12.6
	528	1	9.0	0.0	12.6
	529	2	7.2	0.0	14.4
	530	1	9.0	1.8	14.4
	531	1	7.2	1.8	16.2
	532	2	9.0	0.0	16.2
	533	2	7.2	0.0	18.0
	534	2	9.0	1.8	18.0
	535	1	7.2	1.8	19.8
	536	2	9.0	0.0	19.8
	537	1	7.2	0.0	21.6
	538	1	9.0	1.8	21.6
	539	2	7.2	1.8	23.4
	540	1	9.0	0.0	23.4
	541	2	7.2	0.0	25.2
	542	1	9.0	1.8	25.2
	543	2	7.2	1.8	27.0
	544	2	9.0	0.0	27.0
	545	2	7.2	3.6	0.0
	546	2	9.0	5.4	0.0
	547	2	7.2	5.4	1.8
	548	2	9.0	3.6	1.8
	549	2	7.2	3.6	3.6
	550	2	9.0	5.4	3.6
	551	1	7.2	5.4	5.4
	552	2	9.0	3.6	5.4
	553	1	7.2	3.6	7.2
	554	2	9.0	5.4	7.2
	555	2	7.2	5.4	9.0
	556	2	9.0	3.6	9.0
	557	2	7.2	3.6	10.8
	558	1	9.0	5.4	10.8
	559	2	7.2	5.4	12.6
	560	2	9.0	3.6	12.6
	561	2	7.2	3.6	14.4
	562	1	9.0	5.4	14.4
	563	1	7.2	5.4	16.2
	564	1	9.0	3.6	16.2
	565	2	7.2	3.6	18.0
	566	1	9.0	5.4	18.0
	567	2	7.2	5.4	19.8
	568	2	9.0	3.6	19.8
	569	2	7.2	3.6	21.6
	570	1	9.0	5.4	21.6
	571	1	7.2	5.4	23.4
	572	1	9.0	3.6	23.4
	573	2	7.2	3.6	25.2
	574	2	9.0	5.4	25.2
	575	2	7.2	5.4	27.0
	576	2	9.0	3.6	27.0
	577	1	7.2	7.2	0.0
	578	1	9.0	9.0	0.0
	579	2	7.2	9.0	1.8
	580	2	9.0	7.2	1.8
	581	2	7.2	7.2	3.6
	582	2	9.0	9.0	3.6
	583	2	7.2	9.0	5.4
	584	2	9.0	7.2	5.4
	585	1	7.2	7.2	7.2
	586	2	9.0	9.0	7.2
	587	1	7.2	9.0	9.0
	588	1	9.0	7.2	9.0
	589	2	7.2	7.2	10.8
	590	2	9.0	9.0	10.8
	591	2	7.2	9.0	12.6
	592	2	9.0	7.2	12.6
	593	1	7.2	7.2	14.4
	594	2	9.0	9.0	14.4
	595	2	7.2	9.0	16.2
	596	2	9.0	7.2	16.2
	597	1	7.2	7.2	18.0
	598	1	9.0	9.0	18.0
	599	2	7.2	9.0	19.8
	600	2	9.0	7.2	19.8
	601	2	7.2	7.2	21.6
	602	2	9.0	9.0	21.6
	603	2	7.2	9.0	23.4
	604	1	9.0	7.2	23.4
	605	1	7.2	7.2	25.2
	606	2	9.0	9.0	25.2
	607	2	7.2	9.0	27.0
	608	2	9.0	7.2	27.0
	609	2	7.2	10.8	0.0
	610	1	9.0	12.6	0.0
	611	2	7.2	12.6	1.8
	612	1	9.0	10.8	1.8
	613	2	7.2	10.8	3.6
	614	2	9.0	12.6	3.6
	615	1	7.2	12.6	5.4
	616	2	9.0	10.8	5.4
	617	2	7.2	10.8	7.2
	618	2	9.0	12.6	7.2
	619	2	7.2	12.6	9.0
	620	1	9.0	10.8	9.0
	621	2	7.2	10.8	10.8
	622	2	9.0	12.6	10.8
	623	1	7.2	12.6	12.6
	624	2	9.0	10.8	12.6
	625	2	7.2	10.8	14.4
	626	2	9.0	12.6	14.4
	627	2	7.2	12.6	16.2
	628	2	9.0	10.8	16.2
	629	2	7.2	10.8	18.0
	630	2	9.0	12.6	18.0
	631	2	7.2	12.6	19.8
	632	1	9.0	10.8	19.8
	633	2	7.2	10.8	21.6
	634	2	9.0	12.6	21.6
	635	1	7.2	12.6	23.4
	636	1	9.0	10.8	23.4
	637	2	7.2	10.8	25.2
	638	2	9.0	12.6	25.2
	639	2	7.2	12.6	27.0
	640	1	9.0	10.8	27.0
	641	1	7.2	14.4	0.0
	642	1	9.0	16.2	0.0
	643	2	7.2	16.2	1.8
	644	2	9.0	14.4	1.8
	645	2	7.2	14.4	3.6
	646	2	9.0	16.2	3.6
	647	2	7.2	16.2	5.4
	648	2	9.0	14.4	5.4
	649	2	7.2	14.4	7.2
	650	2	9.0	16.2	7.2
	651	2	7.2	16.2	9.0
	652	2	9.0	14.4	9.0
	653	2	7.2	14.4	10.8
	654	2	9.0	16.2	10.8
	655	1	7.2	16.2	12.6
	656	1	9.0	14.4	12.6
	657	2	7.2	14.4	14.4
	658	2	9.0	16.2	14.4
	659	1	7.2	16.2	16.2
	660	1	9.0	14.4	16.2
	661	2	7.2	14.4	18.0
	662	2	9.0	16.2	18.0
	663	1	7.2	16.2	19.8
	664	2	9.0	14.4	19.8
	665	2	7.2	14.4	21.6
	666	1	9.0	16.2	21.6
	667	2	7.2	16.2	23.4
	668	2	9.0	14.4	23.4
	669	2	7.2	14.4	25.2
	670	1	9.0	16.2	25.2
	671	1	7.2	16.2	27.0
	672	2	9.0	14.4	27.0
	673	2	7.2	18.0	0.0
	674	2	9.0	19.8	0.0
	675	1	7.2	19.8	1.8
	676	2	9.0	18.0	1.8
	677	1	7.2	18.0	3.6
	678	2	9.0	19.8	3.6
	679	2	7.2	19.8	5.4
	680	2	9.0	18.0	5.4
	681	2	7.2	18.0	7.2
	682	2	9.0	19.8	7.2
	683	2	7.2	19.8	9.0
	684	1	9.0	18.0	9.0
	685	1	7.2	18.0	10.8
	686	2	9.0	19.8	10.8
	687	1	7.2	19.8	12.6
	688	2	9.0	18.0	12.6
	689	2	7.2	18.0	14.4
	690	2	9.0	19.8	14.4
	691	2	7.2	19.8	16.2
	692	2	9.0	18.0	16.2
	693	1	7.2	18.0	18.0
	694	2	9.0	19.8	18.0
	695	1	7.2	19.8	19.8
	696	2	9.0	18.0	19.8
	697	1	7.2	18.0	21.6
	698	2	9.0	19.8	21.6
	699	1	7.2	19.8	23.4
	700	2	9.0	18.0	23.4
	701	1	7.2	18.0	25.2
	702	2	9.0	19.8	25.2
	703	2	7.2	19.8	27.0
	704	1	9.0	18.0	27.0
	705	2	7.2	21.6	0.0
	706	2	9.0	23.4	0.0
	707	2	7.2	23.4	1.8
	708	2	9.0	21.6	1.8
	709	2	7.2	21.6	3.6
	710	1	9.0	23.4	3.6
	711	1	7.2	23.4	5.4
	712	2	9.0	21.6	5.4
	713	2	7.2	21.6	7.2
	714	1	9.0	23.4	7.2
	715	2	7.2	23.4	9.0
	716	1	9.0	21.6	9.0
	717	2	7.2	21.6	10.8
	718	2	9.0	23.4	10.8
	719	2	7.2	23.4	12.6
	720	2	9.0	21.6	12.6
	721	1	7.2	21.6	14.4
	722	2	9.0	23.4	14.4
	723	2	7.2	23.4	16.2
	724	2	9.0	21.6	16.2
	725	2	7.2	21.6	18.0
	726	2	9.0	23.4	18.0
	727	1	7.2	23.4	19.8
	728	2	9.0	21.6	19.8
	729	2	7.2	21.6	21.6
	730	2	9.0	23.4	21.6
	731	1	7.2	23.4	23.4
	732	2	9.0	21.6	23.4
	733	2	7.2	21.6	25.2
	734	2	9.0	23.4	25.2
	735	2	7.2	23.4	27.0
	736	1	9.0	21.6	27.0
	737	2	7.2	25.2	0.0
	738	2	9.0	27.0	0.0
	739	2	7.2	27.0	1.8
	740	2	9.0	25.2	1.8
	741	2	7.2	25.2	3.6
	742	2	9.0	27.0	3.6
	743	2	7.2	27.0	5.4
	744	2	9.0	25.2	5.4
	745	2	7.2	25.2	7.2
	746	1	9.0	27.0	7.2
	747	2	7.2	27.0	9.0
	748	2	9.0	25.2	9.0
	749	1	7.2	25.2	10.8
	750	1	9.0	27.0	10.8
	751	2	7.2	27.0	12.6
	752	2	9.0	25.2	12.6
	753	2	7.2	25.2	14.4
	754	2	9.0	27.0	14.4
	755	1	7.2	27.0	16.2
	756	2	9.0	25.2	16.2
	757	2	7.2	25.2	18.0
	758	2	9.0	27.0	18.0
	759	2	7.2	27.0	19.8
	760	2	9.0	25.2	19.8
	761	2	7.2	25.2	21.6
	762	2	9.0	27.0	21.6
	763	2	7.2	27.0	23.4
	764	2	9.0	25.2	23.4
	765	1	7.2	25.2	25.2
	766	2	9.0	27.0	25.2
	767	2	7.2	27.0	27.0
	768	2	9.0	25.2	27.0
	769	2	10.8	0.0	0.0
	770	2	12.6	1.8	0.0
	771	2	10.8	1.8	1.8
	772	2	12.6	0.0	1.8
	773	2	10.8	0.0	3.6
	774	2	12.6	1.8	3.6
	775	2	10.8	1.8	5.4
	776	2	12.6	0.0	5.4
	777	2	10.8	0.0	7.2
	778	1	12.6	1.8	7.2
	779	2	10.8	1.8	9.0
	780	1	12.6	0.0	9.0
	781	1	10.8	0.0	10.8
	782	1	12.6	1.8	10.8
	783	1	10.8	1.8	12.6
	784	2	12.6	0.0	12.6
	785	2	10.8	0.0	14.4
	786	2	12.6	1.8	14.4
	787	2	10.8	1.8	16.2
	788	2	12.6	0.0	16.2
	789	2	10.8	0.0	18.0
	790	1	12.6	1.8	18.0
	791	1	10.8	1.8	19.8
	792	2	12.6	0.0	19.8
	793	1	10.8	0.0	21.6
	794	2	12.6	1.8	21.6
	795	2	10.8	1.8	23.4
	796	2	12.6	0.0	23.4
	797	2	10.8	0.0	25.2
	798	2	12.6	1.8	25.2
	799	1	10.8	1.8	27.0
	800	2	12.6	0.0	27.0
	801	2	10.8	3.6	0.0
	802	2	12.6	5.4	0.0
	803	1	10.8	5.4	1.8
	804	2	12.6	3.6	1.8
	805	1	10.8	3.6	3.6
	806	2	12.6	5.4	3.6
	807	1	10.8	5.4	5.4
	808	1	12.6	3.6	5.4
	809	2	10.8	3.6	7.2
	810	2	12.6	5.4	7.2
	811	2	10.8	5.4	9.0
	812	1	12.6	3.6	9.0
	813	1	10.8	3.6	10.8
	814	1	12.6	5.4	10.8
	815	1	10.8	5.4	12.6
	816	2	12.6	3.6	12.6
	817	2	10.8	3.6	14.4
	818	2	12.6	5.4	14.4
	819	2	10.8	5.4	16.2
	820	2	12.6	3.6	16.2
	821	2	10.8	3.6	18.0
	822	1	12.6	5.4	18.0
	823	2	10.8	5.4	19.8
	824	2	12.6	3.6	19.8
	825	1	10.8	3.6	21.6
	826	2	12.6	5.4	21.6
	827	1	10.8	5.4	23.4
	828	1	12.6	3.6	23.4
	829	2	10.8	3.6	25.2
	830	2	12.6	5.4	25.2
	831	1	10.8	5.4	27.0
	832	2	12.6	3.6	27.0
	833	1	10.8	7.2	0.0
	834	2	12.6	9.0	0.0
	835	2	10.8	9.0	1.8
	836	2	12.6	7.2	1.8
	837	2	10.8	7.2	3.6
	838	2	12.6	9.0	3.6
	839	2	10.8	9.0	5.4
	840	2	12.6	7.2	5.4
	841	2	10.8	7.2	7.2
	842	2	12.6	9.0	7.2
	843	2	10.8	9.0	9.0
	844	2	12.6	7.2	9.0
	845	1	10.8	7.2	10.8
	846	2	12.6	9.0	10.8
	847	1	10.8	9.0	12.6
	848	1	12.6	7.2	12.6
	849	2	10.8	7.2	14.4
	850	1	12.6	9.0	14.4
	851	2	10.8	9.0	16.2
	852	2	12.6	7.2	16.2
	853	2	10.8	7.2	18.0
	854	1	12.6	9.0	18.0
	855	1	10.8	9.0	19.8
	856	1	12.6	7.2	19.8
	857	2	10.8	7.2	21.6
	858	1	12.6	9.0	21.6
	859	2	10.8	9.0	23.4
	860	2	12.6	7.2	23.4
	861	2	10.8	7.2	25.2
	862	2	12.6	9.0	25.2
	863	2	10.8	9.0	27.0
	864	2	12.6	7.2	27.0
	865	2	10.8	10.8	0.0
	866	1	12.6	12.6	0.0
	867	2	10.8	12.6	1.8
	868	1	12.6	10.8	1.8
	869	2	10.8	10.8	3.6
	870	1	12.6	12.6	3.6
	871	2	10.8	12.6	5.4
	872	2	12.6	10.8	5.4
	873	2	10.8	10.8	7.2
	874	2	12.6	12.6	7.2
	875	1	10.8	12.6	9.0
	876	1	12.6	10.8	9.0
	877	2	10.8	10.8	10.8
	878	2	12.6	12.6	10.8
	879	1	10.8	12.6	12.6
	880	2	12.6	10.8	12.6
	881	1	10.8	10.8	14.4
	882	1	12.6	12.6	14.4
	883	2	10.8	12.6	16.2
	884	2	12.6	10.8	16.2
	885	2	10.8	10.8	18.0
	886	1	12.6	12.6	18.0
	887	1	10.8	12.6	19.8
	888	1	12.6	10.8	19.8
	889	2	10.8	10.8	21.6
	890	1	12.6	12.6	21.6
	891	2	10.8	12.6	23.4
	892	2	12.6	10.8	23.4
	893	1	10.8	10.8	25.2
	894	2	12.6	12.6	25.2
	895	2	10.8	12.6	27.0
	896	2	12.6	10.8	27.0
	897	2	10.8	14.4	0.0
	898	2	12.6	16.2	0.0
	899	2	10.8	16.2	1.8
	900	2	12.6	14.4	1.8
	901	1	10.8	14.4	3.6
	902	2	12.6	16.2	3.6
	903	2	10.8	16.2	5.4
	904	2	12.6	14.4	5.4
	905	2	10.8	14.4	7.2
	906	1	12.6	16.2	7.2
	907	2	10.8	16.2	9.0
	908	2	12.6	14.4	9.0
	909	1	10.8	14.4	10.8
	910	1	12.6	16.2	10.8
	911	2	10.8	16.2	12.6
	912	2	12.6	14.4	12.6
	913	2	10.8	14.4	14.4
	914	1	12.6	16.2	14.4
	915	2	10.8	16.2	16.2
	916	2	12.6	14.4	16.2
	917	2	10.8	14.4	18.0
	918	2	12.6	16.2	18.0
	919	2	10.8	16.2	19.8
	920	1	12.6	14.4	19.8
	921	1	10.8	14.4	21.6
	922	2	12.6	16.2	21.6
	923	2	10.8	16.2	23.4
	924	2	12.6	14.4	23.4
	925	2	10.8	14.4	25.2
	926	1	12.6	16.2	25.2
	927	2	10.8	16.2	27.0
	928	2	12.6	14.4	27.0
	929	2	10.8	18.0	0.0
	930	2	12.6	19.8	0.0
	931	2	10.8	19.8	1.8
	932	2	12.6	18.0	1.8
	933	1	10.8	18.0	3.6
	934	2	12.6	19.8	3.6
	935	2	10.8	19.8	5.4
	936	2	12.6	18.0	5.4
	937	1	10.8	18.0	7.2
	938	2	12.6	19.8	7.2
	939	2	10.8	19.8	9.0
	940	2	12.6	18.0	9.0
	941	2	10.8	18.0	10.8
	942	1	12.6	19.8	10.8
	943	2	10.8	19.8	12.6
	944	2	12.6	18.0	12.6
	945	2	10.8	18.0	14.4
	946	2	12.6	19.8	14.4
	947	2	10.8	19.8	16.2
	948	2	12.6	18.0	16.2
	949	1	10.8	18.0	18.0
	950	1	12.6	19.8	18.0
	951	2	10.8	19.8	19.8
	952	1	12.6	18.0	19.8
	953	1	10.8	18.0	21.6
	954	2	12.6	19.8	21.6
	955	2	10.8	19.8	23.4
	956	2	12.6	18.0	23.4
	957	1	10.8	18.0	25.2
	958	2	12.6	19.8	25.2
	959	1	10.8	19.8	27.0
	960	2	12.6	18.0	27.0
	961	1	10.8	21.6	0.0
	962	1	12.6	23.4	0.0
	963	2	10.8	23.4	1.8
	964	2	12.6	21.6	1.8
	965	2	10.8	21.6	3.6
	966	2	12.6	23.4	3.6
	967	2	10.8	23.4	5.4
	968	2	12.6	21.6	5.4
	969	2	10.8	21.6	7.2
	970	2	12.6	23.4	7.2
	971	2	10.8	23.4	9.0
	972	1	12.6	21.6	9.0
	973	2	10.8	21.6	10.8
	974	2	12.6	23.4	10.8
	975	2	10.8	23.4	12.6
	976	2	12.6	21.6	12.6
	977	2	10.8	21.6	14.4
	978	2	12.6	23.4	14.4
	979	2	10.8	23.4	16.2
	980	1	12.6	21.6	16.2
	981	2	10.8	21.6	18.0
	982	2	12.6	23.4	18.0
	983	2	10.8	23.4	19.8
	984	1	12.6	21.6	19.8
	985	2	10.8	21.6	21.6
	986	2	12.6	23.4	21.6
	987	2	10.8	23.4	23.4
	988	2	12.6	21.6	23.4
	989	2	10.8	21.6	25.2
	990	2	12.6	23.4	25.2
	991	2	10.8	23.4	27.0
	992	2	12.6	21.6	27.0
	993	2	10.8	25.2	0.0
	994	2	12.6	27.0	0.0
	995	2	10.8	27.0	1.8
	996	1	12.6	25.2	1.8
	997	2	10.8	25.2	3.6
	998	1	12.6	27.0	3.6
	999	2	10.8	27.0	5.4
	1000	2	12.6	25.2	5.4
	1001	2	10.8	25.2	7.2
	1002	2	12.6	27.0	7.2
	1003	2	10.8	27.0	9.0
	1004	2	12.6	25.2	9.0
	1005	2	10.8	25.2	10.8
	1006	2	12.6	27.0	10.8
	1007	1	10.8	27.0	12.6
	1008	2	12.6	25.2	12.6
	1009	2	10.8	25.2	14.4
	1010	2	12.6	27.0	14.4
	1011	2	10.8	27.0	16.2
	1012	2	12.6	25.2	16.2
	1013	2	10.8	25.2	18.0
	1014	2	12.6	27.0	18.0
	1015	2	10.8	27.0	19.8
	1016	2	12.6	25.2	19.8
	1017	2	10.8	25.2	21.6
	1018	2	12.6	27.0	21.6
	1019	1	10.8	27.0	23.4
	1020	2	12.6	25.2	23.4
	1021	2	10.8	25.2	25.2
	1022	2	12.6	27.0	25.2
	1023	2	10.8	27.0	27.0
	1024	2	12.6	25.2	27.0
	1025	2	14.4	0.0	0.0
	1026	2	16.2	1.8	0.0
	1027	2	14.4	1.8	1.8
	1028	2	16.2	0.0	1.8
	1029	1	14.4	0.0	3.6
	1030	2	16.2	1.8	3.6
	1031	1	14.4	1.8	5.4
	1032	1	16.2	0.0	5.4
	1033	2	14.4	0.0	7.2
	1034	2	16.2	1.8	7.2
	1035	2	14.4	1.8	9.0
	1036	2	16.2	0.0	9.0
	1037	2	14.4	0.0	10.8
	1038	2	16.2	1.8	10.8
	1039	2	14.4	1.8	12.6
	1040	1	16.2	0.0	12.6
	1041	2	14.4	0.0	14.4
	1042	2	16.2	1.8	14.4
	1043	2	14.4	1.8	16.2
	1044	2	16.2	0.0	16.2
	1045	2	14.4	0.0	18.0
	1046	2	16.2	1.8	18.0
	1047	2	14.4	1.8	19.8
	1048	1	16.2	0.0	19.8
	1049	2	14.4	0.0	21.6
	1050	2	16.2	1.8	21.6
	1051	2	14.4	1.8	23.4
	1052	1	16.2	0.0	23.4
	1053	2	14.4	0.0	25.2
	1054	2	16.2	1.8	25.2
	1055	2	14.4	1.8	27.0
	1056	2	16.2	0.0	27.0
	1057	2	14.4	3.6	0.0
	1058	2	16.2	5.4	0.0
	1059	1	14.4	5.4	1.8
	1060	2	16.2	3.6	1.8
	1061	2	14.4	3.6	3.6
	1062	2	16.2	5.4	3.6
	1063	2	14.4	5.4	5.4
	1064	1	16.2	3.6	5.4
	1065	2	14.4	3.6	7.2
	1066	2	16.2	5.4	7.2
	1067	2	14.4	5.4	9.0
	1068	2	16.2	3.6	9.0
	1069	2	14.4	3.6	10.8
	1070	1	16.2	5.4	10.8
	1071	1	14.4	5.4	12.6
	1072	2	16.2	3.6	12.6
	1073	2	14.4	3.6	14.4
	1074	2	16.2	5.4	14.4
	1075	1	14.4	5.4	16.2
	1076	2	16.2	3.6	16.2
	1077	2	14.4	3.6	18.0
	1078	2	16.2	5.4	18.0
	1079	1	14.4	5.4	19.8
	1080	2	16.2	3.6	19.8
	1081	2	14.4	3.6	21.6
	1082	2	16.2	5.4	21.6
	1083	1	14.4	5.4	23.4
	1084	2	16.2	3.6	23.4
	1085	2	14.4	3.6	25.2
	1086	2	16.2	5.4	25.2
	1087	2	14.4	5.4	27.0
	1088	2	16.2	3.6	27.0
	1089	1	14.4	7.2	0.0
	1090	2	16.2	9.0	0.0
	1091	2	14.4	9.0	1.8
	1092	2	16.2	7.2	1.8
	1093	1	14.4	7.2	3.6
	1094	1	16.2	9.0	3.6
	1095	2	14.4	9.0	5.4
	1096	1	16.2	7.2	5.4
	1097	2	14.4	7.2	7.2
	1098	1	16.2	9.0	7.2
	1099	2	14.4	9.0	9.0
	1100	2	16.2	7.2	9.0
	1101	2	14.4	7.2	10.8
	1102	2	16.2	9.0	10.8
	1103	2	14.4	9.0	12.6
	1104	2	16.2	7.2	12.6
	1105	1	14.4	7.2	14.4
	1106	2	16.2	9.0	14.4
	1107	1	14.4	9.0	16.2
	1108	2	16.2	7.2	16.2
	1109	2	14.4	7.2	18.0
	1110	2	16.2	9.0	18.0
	1111	2	14.4	9.0	19.8
	1112	1	16.2	7.2	19.8
	1113	2	14.4	7.2	21.6
	1114	1	16.2	9.0	21.6
	1115	2	14.4	9.0	23.4
	1116	2	16.2	7.2	23.4
	1117	2	14.4	7.2	25.2
	1118	1	16.2	9.0	25.2
	1119	2	14.4	9.0	27.0
	1120	2	16.2	7.2	27.0
	1121	2	14.4	10.8	0.0
	1122	2	16.2	12.6	0.0
	1123	1	14.4	12.6	1.8
	1124	2	16.2	10.8	1.8
	1125	2	14.4	10.8	3.6
	1126	2	16.2	12.6	3.6
	1127	1	14.4	12.6	5.4
	1128	2	16.2	10.8	5.4
	1129	2	14.4	10.8	7.2
	1130	2	16.2	12.6	7.2
	1131	1	14.4	12.6	9.0
	1132	1	16.2	10.8	9.0
	1133	1	14.4	10.8	10.8
	1134	2	16.2	12.6	10.8
	1135	2	14.4	12.6	12.6
	1136	1	16.2	10.8	12.6
	1137	2	14.4	10.8	14.4
	1138	2	16.2	12.6	14.4
	1139	2	14.4	12.6	16.2
	1140	2	16.2	10.8	16.2
	1141	2	14.4	10.8	18.0
	1142	2	16.2	12.6	18.0
	1143	2	14.4	12.6	19.8
	1144	2	16.2	10.8	19.8
	1145	1	14.4	10.8	21.6
	1146	2	16.2	12.6	21.6
	1147	1	14.4	12.6	23.4
	1148	2	16.2	10.8	23.4
	1149	2	14.4	10.8	25.2
	1150	1	16.2	12.6	25.2
	1151	2	14.4	12.6	27.0
	1152	2	16.2	10.8	27.0
	1153	2	14.4	14.4	0.0
	1154	2	16.2	16.2	0.0
	1155	2	14.4	16.2	1.8
	1156	2	16.2	14.4	1.8
	1157	2	14.4	14.4	3.6
	1158	2	16.2	16.2	3.6
	1159	2	14.4	16.2	5.4
	1160	2	16.2	14.4	5.4
	1161	1	14.4	14.4	7.2
	1162	2	16.2	16.2	7.2
	1163	1	14.4	16.2	9.0
	1164	2	16.2	14.4	9.0
	1165	1	14.4	14.4	10.8
	1166	1	16.2	16.2	10.8
	1167	2	14.4	16.2	12.6
	1168	2	16.2	14.4	12.6
	1169	1	14.4	14.4	14.4
	1170	2	16.2	16.2	14.4
	1171	1	14.4	16.2	16.2
	1172	2	16.2	14.4	16.2
	1173	2	14.4	14.4	18.0
	1174	2	16.2	16.2	18.0
	1175	2	14.4	16.2	19.8
	1176	2	16.2	14.4	19.8
	1177	1	14.4	14.4	21.6
	1178	1	16.2	16.2	21.6
	1179	2	14.4	16.2	23.4
	1180	2	16.2	14.4	23.4
	1181	1	14.4	14.4	25.2
	1182	1	16.2	16.2	25.2
	1183	2	14.4	16.2	27.0
	1184	2	16.2	14.4	27.0
	1185	2	14.4	18.0	0.0
	1186	2	16.2	19.8	0.0
	1187	2	14.4	19.8	1.8
	1188	1	16.2	18.0	1.8
	1189	2	14.4	18.0	3.6
	1190	2	16.2	19.8	3.6
	1191	2	14.4	19.8	5.4
	1192	2	16.2	18.0	5.4
	1193	1	14.4	18.0	7.2
	1194	2	16.2	19.8	7.2
	1195	2	14.4	19.8	9.0
	1196	2	16.2	18.0	9.0
	1197	2	14.4	18.0	10.8
	1198	2	16.2	19.8	10.8
	1199	2	14.4	19.8	12.6
	1200	1	16.2	18.0	12.6
	1201	2	14.4	18.0	14.4
	1202	1	16.2	19.8	14.4
	1203	1	14.4	19.8	16.2
	1204	1	16.2	18.0	16.2
	1205	2	14.4	18.0	18.0
	1206	2	16.2	19.8	18.0
	1207	2	14.4	19.8	19.8
	1208	2	16.2	18.0	19.8
	1209	2	14.4	18.0	21.6
	1210	1	16.2	19.8	21.6
	1211	1	14.4	19.8	23.4
	1212	2	16.2	18.0	23.4
	1213	2	14.4	18.0	25.2
	1214	2	16.2	19.8	25.2
	1215	1	14.4	19.8	27.0
	1216	2	16.2	18.0	27.0
	1217	1	14.4	21.6	0.0
	1218	2	16.2	23.4	0.0
	1219	2	14.4	23.4	1.8
	1220	2	16.2	21.6	1.8
	1221	1	14.4	21.6	3.6
	1222	1	16.2	23.4	3.6
	1223	2	14.4	23.4	5.4
	1224	2	16.2	21.6	5.4
	1225	2	14.4	21.6	7.2
	1226	1	16.2	23.4	7.2
	1227	2	14.4	23.4	9.0
	1228	2	16.2	21.6	9.0
	1229	1	14.4	21.6	10.8
	1230	2	16.2	23.4	10.8
	1231	2	14.4	23.4	12.6
	1232	2	16.2	21.6	12.6
	1233	2	14.4	21.6	14.4
	1234	2	16.2	23.4	14.4
	1235	2	14.4	23.4	16.2
	1236	2	16.2	21.6	16.2
	1237	1	14.4	21.6	18.0
	1238	2	16.2	23.4	18.0
	1239	1	14.4	23.4	19.8
	1240	2	16.2	21.6	19.8
	1241	2	14.4	21.6	21.6
	1242	1	16.2	23.4	21.6
	1243	1	14.4	23.4	23.4
	1244	2	16.2	21.6	23.4
	1245	2	14.4	21.6	25.2
	1246	2	16.2	23.4	25.2
	1247	2	14.4	23.4	27.0
	1248	2	16.2	21.6	27.0
	1249	1	14.4	25.2	0.0
	1250	2	16.2	27.0	0.0
	1251	2	14.4	27.0	1.8
	1252	1	16.2	25.2	1.8
	1253	2	14.4	25.2	3.6
	1254	1	16.2	27.0	3.6
	1255	2	14.4	27.0	5.4
	1256	1	16.2	25.2	5.4
	1257	2	14.4	25.2	7.2
	1258	1	16.2	27.0	7.2
	1259	2	14.4	27.0	9.0
	1260	1	16.2	25.2	9.0
	1261	1	14.4	25.2	10.8
	1262	1	16.2	27.0	10.8
	1263	2	14.4	27.0	12.6
	1264	2	16.2	25.2	12.6
	1265	2	14.4	25.2	14.4
	1266	2	16.2	27.0	14.4
	1267	2	14.4	27.0	16.2
	1268	1	16.2	25.2	16.2
	1269	1	14.4	25.2	18.0
	1270	2	16.2	27.0	18.0
	1271	2	14.4	27.0	19.8
	1272	1	16.2	25.2	19.8
	1273	2	14.4	25.2	21.6
	1274	1	16.2	27.0	21.6
	1275	1	14.4	27.0	23.4
	1276	1	16.2	25.2	23.4
	1277	1	14.4	25.2	25.2
	1278	2	16.2	27.0	25.2
	1279	1	14.4	27.0	27.0
	1280	2	16.2	25.2	27.0
	1281	2	18.0	0.0	0.0
	1282	1	19.8	1.8	0.0
	1283	1	18.0	1.8	1.8
	1284	2	19.8	0.0	1.8
	1285	2	18.0	0.0	3.6
	1286	2	19.8	1.8	3.6
	1287	2	18.0	1.8	5.4
	1288	1	19.8	0.0	5.4
	1289	2	18.0	0.0	7.2
	1290	2	19.8	1.8	7.2
	1291	2	18.0	1.8	9.0
	1292	1	19.8	0.0	9.0
	1293	1	18.0	0.0	10.8
	1294	2	19.8	1.8	10.8
	1295	2	18.0	1.8	12.6
	1296	1	19.8	0.0	12.6
	1297	2	18.0	0.0	14.4
	1298	2	19.8	1.8	14.4
	1299	2	18.0	1.8	16.2
	1300	2	19.8	0.0	16.2
	1301	2	18.0	0.0	18.0
	1302	2	19.8	1.8	18.0
	1303	1	18.0	1.8	19.8
	1304	1	19.8	0.0	19.8
	1305	2	18.0	0.0	21.6
	1306	2	19.8	1.8	21.6
	1307	2	18.0	1.8	23.4
	1308	2	19.8	0.0	23.4
	1309	1	18.0	0.0	25.2
	1310	1	19.8	1.8	25.2
	1311	2	18.0	1.8	27.0
	1312	2	19.8	0.0	27.0
	1313	2	18.0	3.6	0.0
	1314	2	19.8	5.4	0.0
	1315	1	18.0	5.4	1.8
	1316	2	19.8	3.6	1.8
	1317	2	18.0	3.6	3.6
	1318	2	19.8	5.4	3.6
	1319	1	18.0	5.4	5.4
	1320	1	19.8	3.6	5.4
	1321	2	18.0	3.6	7.2
	1322	1	19.8	5.4	7.2
	1323	1	18.0	5.4	9.0
	1324	2	19.8	3.6	9.0
	1325	2	18.0	3.6	10.8
	1326	1	19.8	5.4	10.8
	1327	2	18.0	5.4	12.6
	1328	2	19.8	3.6	12.6
	1329	1	18.0	3.6	14.4
	1330	2	19.8	5.4	14.4
	1331	1	18.0	5.4	16.2
	1332	1	19.8	3.6	16.2
	1333	2	18.0	3.6	18.0
	1334	2	19.8	5.4	18.0
	1335	2	18.0	5.4	19.8
	1336	2	19.8	3.6	19.8
	1337	2	18.0	3.6	21.6
	1338	2	19.8	5.4	21.6
	1339	1	18.0	5.4	23.4
	1340	2	19.8	3.6	23.4
	1341	2	18.0	3.6	25.2
	1342	2	19.8	5.4	25.2
	1343	2	18.0	5.4	27.0
	1344	2	19.8	3.6	27.0
	1345	2	18.0	7.2	0.0
	1346	2	19.8	9.0	0.0
	1347	1	18.0	9.0	1.8
	1348	2	19.8	7.2	1.8
	1349	1	18.0	7.2	3.6
	1350	2	19.8	9.0	3.6
	1351	2	18.0	9.0	5.4
	1352	2	19.8	7.2	5.4
	1353	2	18.0	7.2	7.2
	1354	2	19.8	9.0	7.2
	1355	2	18.0	9.0	9.0
	1356	1	19.8	7.2	9.0
	1357	2	18.0	7.2	10.8
	1358	2	19.8	9.0	10.8
	1359	2	18.0	9.0	12.6
	1360	2	19.8	7.2	12.6
	1361	1	18.0	7.2	14.4
	1362	2	19.8	9.0	14.4
	1363	2	18.0	9.0	16.2
	1364	2	19.8	7.2	16.2
	1365	2	18.0	7.2	18.0
	1366	2	19.8	9.0	18.0
	1367	2	18.0	9.0	19.8
	1368	2	19.8	7.2	19.8
	1369	2	18.0	7.2	21.6
	1370	2	19.8	9.0	21.6
	1371	1	18.0	9.0	23.4
	1372	1	19.8	7.2	23.4
	1373	2	18.0	7.2	25.2
	1374	2	19.8	9.0	25.2
	1375	2	18.0	9.0	27.0
	1376	2	19.8	7.2	27.0
	1377	1	18.0	10.8	0.0
	1378	2	19.8	12.6	0.0
	1379	1	18.0	12.6	1.8
	1380	1	19.8	10.8	1.8
	1381	2	18.0	10.8	3.6
	1382	2	19.8	12.6	3.6
	1383	2	18.0	12.6	5.4
	1384	1	19.8	10.8	5.4
	1385	1	18.0	10.8	7.2
	1386	2	19.8	12.6	7.2
	1387	2	18.0	12.6	9.0
	1388	2	19.8	10.8	9.0
	1389	2	18.0	10.8	10.8
	1390	2	19.8	12.6	10.8
	1391	1	18.0	12.6	12.6
	1392	2	19.8	10.8	12.6
	1393	2	18.0	10.8	14.4
	1394	2	19.8	12.6	14.4
	1395	1	18.0	12.6	16.2
	1396	1	19.8	10.8	16.2
	1397	2	18.0	10.8	18.0
	1398	1	19.8	12.6	18.0
	1399	2	18.0	12.6	19.8
	1400	2	19.8	10.8	19.8
	1401	2	18.0	10.8	21.6
	1402	1	19.8	12.6	21.6
	1403	2	18.0	12.6	23.4
	1404	1	19.8	10.8	23.4
	1405	1	18.0	10.8	25.2
	1406	2	19.8	12.6	25.2
	1407	2	18.0	12.6	27.0
	1408	2	19.8	10.8	27.0
	1409	1	18.0	14.4	0.0
	1410	1	19.8	16.2	0.0
	1411	1	18.0	16.2	1.8
	1412	2	19.8	14.4	1.8
	1413	2	18.0	14.4	3.6
	1414	1	19.8	16.2	3.6
	1415	2	18.0	16.2	5.4
	1416	2	19.8	14.4	5.4
	1417	2	18.0	14.4	7.2
	1418	2	19.8	16.2	7.2
	1419	2	18.0	16.2	9.0
	1420	1	19.8	14.4	9.0
	1421	2	18.0	14.4	10.8
	1422	1	19.8	16.2	10.8
	1423	1	18.0	16.2	12.6
	1424	2	19.8	14.4	12.6
	1425	2	18.0	14.4	14.4
	1426	2	19.8	16.2	14.4
	1427	1	18.0	16.2	16.2
	1428	1	19.8	14.4	16.2