LAMMPS (8 Feb 2019)
OMP_NUM_THREADS environment is not set. Defaulting to 1 thread. (src/comm.cpp:87)
  using 1 OpenMP thread(s) per MPI task
# Compute elastic constant tensor for a crystal
#
# Written by Aidan Thompson (Sandia, athomps@sandia.gov)
#
#  This script uses the following three include files.
#
#   init.mod      (must be modified for different crystal structures)
# 	       	  Define units, deformation parameters and initial
#		  configuration of the atoms and simulation cell.
#
#
#   potential.mod    (must be modified for different pair styles)
# 		     Define pair style and other attributes
#		     not stored in restart file
#
#
#   displace.mod    (displace.mod should not need to be modified)
# 		    Perform positive and negative box displacements
# 		    in direction ${dir} and size ${up}.
# 		    It uses the resultant changes
#		    in stress to compute one
# 		    row of the elastic stiffness tensor
#
#		    Inputs variables:
#		    	   dir = the Voigt deformation component
#		    		    (1,2,3,4,5,6)
#		    Global constants:
#       	    	   up = the deformation magnitude (strain units)
#       		   cfac = conversion from LAMMPS pressure units to
#               	   output units for elastic constants
#
#
#  To run this on a different system, it should only be necessary to
#  modify the files init.mod and potential.mod. In order to calculate
#  the elastic constants correctly, care must be taken to specify
#  the correct units in init.mod (units, cfac and cunits). It is also
#  important to verify that the minimization of energy w.r.t atom
#  positions in the deformed cell is fully converged.
#  One indication of this is that the elastic constants are insensitive
#  to the choice of the variable ${up} in init.mod. Another is to check
#  the final max and two-norm forces reported in the log file. If you know
#  that minimization is not required, you can set maxiter = 0.0 in
#  init.mod.
#

include init.mod
# NOTE: This script can be modified for different atomic structures,
# units, etc. See in.elastic for more info.
#

# Define the finite deformation size. Try several values of this
# variable to verify that results do not depend on it.
variable up equal 1.0e-7

# Define the amount of random jiggle for atoms
# This prevents atoms from staying on saddle points
variable atomjiggle equal 1.0e-5

# Uncomment one of these blocks, depending on what units
# you are using in LAMMPS and for output

# metal units, elastic constants in eV/A^3
#units		metal
#variable cfac equal 6.2414e-7
#variable cunits string eV/A^3

# metal units, elastic constants in GPa
units		metal
variable cfac equal 1.0e-4
variable cunits string GPa

# real units, elastic constants in GPa
#units		real
#variable cfac equal 1.01325e-4
#variable cunits string GPa

# Define minimization parameters
variable etol equal 0.0
variable ftol equal 1.0e-10
variable maxiter equal 100
variable maxeval equal 1000
variable dmax equal 1.0e-2

# generate the box and atom positions using a diamond lattice
variable a equal 5.43
dimension 	3
boundary	p p p
atom_style 	atomic


read_data	data.elastic
  triclinic box = (0 0 0) to (28.8 28.8 28.8) with tilt (0 0 0)
  1 by 1 by 1 MPI processor grid
  reading atoms ...
  2048 atoms
  reading velocities ...
  2048 velocities
#lattice         diamond $a
#region		box prism 0 2.0 0 3.0 0 4.0 0.0 0.0 0.0
#create_box	1 box
#create_atoms	1 box

# Need to set mass to something, just to satisfy LAMMPS
#mass 1 1.0e-20

include potential.mod
# NOTE: This script can be modified for different pair styles
# See in.elastic for more info.

# Choose potential
pair_style 	eam/alloy
pair_coeff	* * CuNi.eam.alloy Ni Cu
Reading potential file CuNi.eam.alloy with DATE: 2014-07-11

#pair_style	sw
#pair_coeff * * Si.sw Si

# Setup neighbor style
#neighbor 1.0 nsq
#neigh_modify once no every 1 delay 0 check yes

neighbor                .05 bin
neigh_modify            delay 10 check yes


# Setup minimization style
min_style	     cg
min_modify	     dmax ${dmax} line quadratic
min_modify	     dmax 0.01 line quadratic

# Setup output
thermo		1
thermo_style custom step temp pe press pxx pyy pzz pxy pxz pyz lx ly lz vol
thermo_modify norm no

# Compute initial state
fix 3 all box/relax  aniso 0.0
minimize ${etol} ${ftol} ${maxiter} ${maxeval}
minimize 0 ${ftol} ${maxiter} ${maxeval}
minimize 0 1e-10 ${maxiter} ${maxeval}
minimize 0 1e-10 100 ${maxeval}
minimize 0 1e-10 100 1000
WARNING: Using 'neigh_modify every 1 delay 0 check yes' setting during minimization (src/min.cpp:168)
Neighbor list info ...
  update every 1 steps, delay 0 steps, check yes
  max neighbors/atom: 2000, page size: 100000
  master list distance cutoff = 6.44433
  ghost atom cutoff = 6.44433
  binsize = 3.22217, bins = 9 9 9
  1 neighbor lists, perpetual/occasional/extra = 1 0 0
  (1) pair eam/alloy, perpetual
      attributes: half, newton on
      pair build: half/bin/newton/tri
      stencil: half/bin/3d/newton/tri
      bin: standard
Per MPI rank memory allocation (min/avg/max) = 4.291 | 4.291 | 4.291 Mbytes
Step Temp PotEng Press Pxx Pyy Pzz Pxy Pxz Pyz Lx Ly Lz Volume 
       0            0   -7741.9764    1457.5543    1356.1743    1365.4684    1651.0201   -98.391736    241.45054   -426.87422         28.8         28.8         28.8    23887.872 
       1            0   -7741.9816    1065.6645    967.98083    977.14634    1251.8662   -98.232726    241.02152    -426.3066    28.802366    28.802382     28.80288    23894.199 
       2            0   -7741.9852    688.37915    595.37759     604.3106    865.44927   -98.082358    240.60614   -425.75373    28.804593     28.80463     28.80576    23900.301 
       3            0   -7741.9874    336.38686    249.81685    258.33508    501.00864   -97.947707    240.21463   -425.22543    28.806574    28.806641     28.80864    23906.004 
       4            0   -7741.9887     39.59144   -36.650483   -28.949566    184.37437   -97.846337    239.87481   -424.75038     28.80801    28.808126     28.81152    23910.818 
       5            0   -7741.9904   -55.598285    -107.0984   -101.72467    42.028209   -97.868675    239.72309   -424.47077    28.807438    28.807674      28.8144    23912.358 
       6            0    -7741.993    163.49067    142.14639    144.42729    203.89833   -98.043268    239.90288   -424.59852    28.804558    28.804945     28.81571    23908.789 
       7            0    -7741.995   -100.80594   -109.49899   -108.34977    -84.56905   -97.966232    239.59929   -424.15722    28.805667    28.806118     28.81859    23913.074 
       8            0   -7741.9996    217.64396    225.64319    224.79994    202.48874   -98.161113    239.92871   -424.50933    28.802787     28.80333    28.818005    23907.884 
       9            0   -7742.0032   -160.96461   -148.49909   -149.66923   -184.72551    -98.02309    239.53028    -423.9616    28.805029    28.805599    28.820885    23914.018 
      10            0   -7742.0111    231.14633    240.49528    239.24142    213.70229   -98.217455    240.00152   -424.54252    28.802616     28.80318    28.818005    23907.617 
      11            0   -7742.0167   -175.63656   -171.35163   -171.89711   -183.66094   -98.053623    239.60475   -424.01696    28.805496    28.806035    28.820202    23914.201 
      12            0    -7742.025    158.79455    155.67325     155.7529    164.95749    -98.21533    240.02506   -424.54401    28.803664    28.804161    28.817322    23908.734 
      13            0   -7742.0313   -267.81828   -273.31395   -272.62777   -257.51312   -98.053473    239.60536   -423.97658    28.806544    28.807023    28.819898    23915.638 
      14            0   -7742.0424    169.78222    164.30668    164.92327    180.11672   -98.288191    240.13325   -424.60767    28.803678    28.804149    28.817018    23908.484 
      15            0   -7742.0509   -234.72588   -237.55548   -236.93231   -229.68985   -98.156592    239.73742    -424.0451     28.80617    28.806652    28.819898     23915.02 
      16            0    -7742.061    175.99377     177.1733    177.10559    173.70242   -98.384743    240.22274   -424.61311     28.80329    28.803795    28.817548    23908.307 
      17            0   -7742.0712   -236.17754   -232.79166   -232.97036   -242.77059   -98.255955    239.82893   -424.04614    28.805849    28.806371    28.820428     23914.96 
      18            0   -7742.0821    198.96847    203.03516    202.40547    191.46479   -98.491172    240.35341   -424.67055    28.802969    28.803502    28.817608    23907.847 
      19            0    -7742.095    -231.8073   -229.77974   -230.02932   -235.61283   -98.356085    239.96279   -424.10872    28.805849    28.806374    28.820221    23914.791 
      20            0   -7742.1065    175.04516    174.98492    174.72461    175.42595   -98.576139    240.46623   -424.71192    28.803285      28.8038    28.817341    23908.135 
      21            0   -7742.1197   -254.42637   -256.70458   -256.37258   -250.20194   -98.443784    240.07907    -424.1541    28.806165    28.806662    28.819938    23915.057 
      22            0   -7742.1325    174.19895    171.36662    171.62629    179.60394   -98.682588    240.60852   -424.78111    28.803383    28.803872    28.817058    23908.042 
      23            0   -7742.1472   -254.52466   -256.35264   -255.86739   -251.35396   -98.564985    240.22272   -424.20838    28.806101    28.806591    28.819938    23914.945 
      24            0   -7742.1603    171.80935    171.77701    171.83544    171.81559   -98.810372    240.74681   -424.81934    28.803221    28.803721     28.81728    23907.967 
      25            0    -7742.176   -251.56565   -250.09721   -250.04545   -254.55429   -98.701116    240.37145   -424.25381    28.805879     28.80639     28.82016    23914.779 
      26            0   -7742.1895    181.94995     184.2359    183.85351    177.76043   -98.949622    240.90802    -424.8821    28.802999     28.80352     28.81736    23907.682 
      27            0   -7742.2074   -257.48019   -256.22209   -256.33444   -259.88404   -98.838317    240.53282   -424.31476    28.805879    28.806399    28.820112    23914.745 
      28            0   -7742.2218    164.65808    165.00413    164.72454    164.24558    -99.08298     241.0659   -424.94012    28.803155    28.803671    28.817232     23907.83 
      29            0   -7742.2401   -270.58215   -271.84058   -271.60969   -268.29618   -98.975592    240.69856   -424.38375    28.806035    28.806537    28.819912    23914.823 
      30            0   -7742.2552    159.28506    157.62815    157.74055    162.48649   -99.229096    241.24247   -425.01891    28.803234    28.803731    28.817032    23907.779 
      31            0   -7742.2748   -277.80311   -278.95952   -278.56207   -275.88774   -99.132578    240.87494   -424.45085    28.806023    28.806518    28.819912    23914.798 
      32            0   -7742.2904    153.36554    153.27283    153.32853    153.49525   -99.393116    241.41983   -425.08082    28.803143    28.803643    28.817151    23907.731 
      33            0   -7742.3109   -279.11621   -278.26799   -278.14659   -280.93404   -99.305206    241.06183   -424.51982    28.805879    28.806388    28.820031     23914.67 
      34            0   -7742.3266    155.21515    156.69774    156.42236    152.52535   -99.567839    241.61257   -425.15799    28.802999    28.803516    28.817206    23907.551 
      35            0    -7742.349   -286.46421    -285.8506    -285.8569   -287.68512   -99.482841    241.25931   -424.60066    28.805879    28.806394    28.819979    23914.632 
      36            0   -7742.3654    140.96956    141.09395    140.87441    140.94032   -99.744026    241.80853   -425.23837    28.803097    28.803611    28.817099    23907.622 
      37            0   -7742.3885   -299.12519   -300.10147   -299.85267   -297.42144   -99.664519    241.46082   -424.68702    28.805977     28.80648    28.819847    23914.675 
      38            0   -7742.4052    134.09229     133.0027    133.08527    136.18888   -99.932161      242.017   -425.33255    28.803139    28.803638    28.816967     23907.57 
      39            0   -7742.4293   -303.60154   -304.12235   -303.79059   -302.89167   -99.864393    241.67349   -424.77781    28.805921     28.80642    28.819847    23914.579 
      40            0   -7742.4458    129.35258    129.62689    129.62632    128.80452   -100.13429    242.22706    -425.4183    28.803041    28.803545    28.817048    23907.479 
      41            0   -7742.4712    -312.3913   -311.72737   -311.62105   -313.82548   -100.07326      241.887   -424.86372    28.805857    28.806367    28.819928    23914.548 
      42            0   -7742.4879    124.10638    125.08094    124.83604    122.40215   -100.34576    242.44726   -425.51383    28.802977    28.803492    28.817058     23907.39 
      43            0   -7742.5146   -316.87375   -317.00017   -316.88821   -316.73286   -100.29117    242.11839   -424.97417    28.805857    28.806366      28.8198    23914.441 
      44            0   -7742.5311    113.26767    112.83251     112.7425      114.228   -100.55961    242.67138   -425.61951    28.803048    28.803556     28.81692    23907.387 
      45            0   -7742.5587   -333.77418   -334.51858    -334.1969   -332.60705   -100.51217    242.33978   -425.07117    28.805928    28.806427    28.819777    23914.532 
      46            0   -7742.5752    102.79634    102.35857     102.4451    103.58535   -100.78628    242.89761    -425.7226    28.803048    28.803547    28.816913    23907.374 
      47            0   -7742.6031   -335.53247   -335.29744   -335.09015   -336.20981   -100.74896    242.57561   -425.18355    28.805824    28.806329    28.819793    23914.377 
      48            0   -7742.6182    99.798192     100.5573    100.41466    98.422619   -101.01752    243.12478   -425.82941    28.802944    28.803454    28.816954    23907.245 
      49            0   -7742.6475   -344.13686   -344.16474    -344.0343   -344.21153    -100.9844    242.80717   -425.29758    28.805824    28.806332    28.819735    23914.332 
      50            0   -7742.6619    89.393143    89.274549    89.149188    89.755693   -101.24851    243.35253   -425.94353    28.802986    28.803495    28.816855    23907.232 
      51            0   -7742.6919   -357.49235   -358.02119   -357.70344   -356.75244   -101.22249    243.03351   -425.40985    28.805866    28.806365    28.819698    23914.364 
      52            0   -7742.7054    80.521084     80.19586    80.280657    81.086736   -101.48582    243.57862    -426.0584    28.802987    28.803485     28.81682    23907.195 
      53            0   -7742.7357   -360.01319   -359.73695    -359.5797   -360.72293   -101.46905    243.26571   -425.53063    28.805776    28.806283      28.8197    23914.222 
      54            0   -7742.7477      77.1218    77.781585     77.60562    75.978196   -101.72522    243.80171   -426.17367    28.802896    28.803407    28.816843    23907.074 
      55            0   -7742.7789   -363.41305    -364.0685   -363.78786    -362.3828   -101.71167    243.49684   -425.66159    28.805776    28.806276    28.819556    23914.097 
      56            0   -7742.7898    72.160313    71.468712    71.517888     73.49434   -101.96229     244.0265   -426.30368    28.802928    28.803428    28.816676    23906.979 
      57            0   -7742.8212   -358.64053   -358.06516   -357.89209   -359.96436   -101.96139    243.72653   -425.79144     28.80562    28.806125    28.819556    23913.842 
      58            0   -7742.8309     78.61762    79.634952    79.501532    76.716378   -102.20987     244.2509   -426.43167     28.80274    28.803249    28.816709    23906.702 
      59            0   -7742.8645   -354.88192   -356.21417   -355.93263   -352.49895   -102.21426    243.96787   -425.94595     28.80562    28.806119    28.819269    23913.599 
      60            0   -7742.8743    79.965152    78.530534    78.561657    82.803266   -102.46271    244.49083    -426.5875    28.802782    28.803281    28.816389    23906.498 
      61            0   -7742.9077   -324.10504   -322.39832   -322.25067   -327.66614   -102.49364    244.22445   -426.11138    28.805207    28.805712    28.819269    23912.918 
      62            0   -7742.9169    112.19143    114.49761    114.34488    107.73181    -102.7448    244.74567   -426.75054    28.802327    28.802835    28.816445    23905.797 
      63            0   -7742.9624   -305.93188   -308.45327   -308.25047    -301.0919   -102.82672    244.54813    -426.3467    28.805207    28.805707    28.818641    23912.393 
      64            0   -7742.9733    126.12928    123.33544    123.28427    131.76812   -103.08772    245.07708   -426.99231    28.802394    28.802894    28.815761    23905.334 
      65            0   -7743.0339   -250.59505   -247.90656   -247.65249    -256.2261   -103.31552    244.97893   -426.64425    28.804486    28.804982    28.818641    23911.193 
      66            0   -7743.0458    186.04003    189.21411    189.17161    179.73438   -103.59202    245.51876   -427.29751    28.801606    28.802105      28.8158    23904.056 
      67            0   -7743.4045    181.99021    163.05975    161.45852    221.45235   -106.11043    247.59416   -428.94285    28.802139    28.802697     28.81292    23902.601 
      68            0    -7743.405   -121.19675   -135.94323    -136.9883   -90.658707   -105.98269    247.24986   -428.49575    28.803909     28.80445    28.815322    23907.518 
      69            0   -7743.4078   -114.35244   -99.700401   -98.324406   -145.03251   -106.08166    247.18597   -428.33823     28.80245    28.802882    28.818202    23907.395 
      70            0   -7743.4083    190.49055    199.99939    200.68206     170.7902   -106.21457    247.53944   -428.79794    28.800715    28.801171    28.815686    23902.447 
      71            0   -7743.4119    185.97637    166.49538    164.47583    226.95789   -106.16524    247.63594   -428.98641    28.802128    28.802706    28.812806    23902.504 
      72            0   -7743.4124   -119.73703   -135.01464   -136.39143   -87.805021   -106.03648    247.28845   -428.53566    28.803913     28.80447    28.815231    23907.462 
      73            0   -7743.4151   -118.46307   -104.97532   -103.43086   -146.98302   -106.13103    247.21796    -428.3733    28.802521    28.802944    28.818111     23907.43 
      74            0   -7743.4156    186.57614    195.65761    196.48581    167.58499   -106.26574    247.56984    -428.8287    28.800749    28.801198    28.815662    23902.479 
      75            0   -7743.4194    202.25488     183.9341    181.64306    241.18746   -106.23056    247.68632   -429.03697    28.801954    28.802545    28.812782    23902.208 
      76            0     -7743.42   -127.91148   -142.77404   -144.40452   -96.555884   -106.08902    247.31402   -428.55698    28.803934    28.804503    28.815296    23907.562 
      77            0   -7743.4226   -182.69922   -172.70076   -171.25325   -204.14366   -106.14828    247.19169   -428.34031    28.803094    28.803523    28.818176    23908.439 
      78            0   -7743.4233    175.03232    184.41333     185.4936    155.19002    -106.3179    247.59111   -428.84606    28.800798    28.801235    28.815762    23902.633 
      79            0   -7743.4269    413.69722    410.32449    409.39283    421.37433   -106.42749    247.91281   -429.27844    28.799852    28.800376    28.812882    23898.747 
      80            0   -7743.4293   -1.6099253   -8.4518554   -9.5650299    13.187109   -106.23664    247.47318   -428.72686    28.802714    28.803256    28.815246    23905.472 
      81            0   -7743.4359    8.0691531    29.740093    33.415255   -38.947889    -106.3665    247.42533   -428.59512    28.801274    28.801594    28.818126    23905.287 
      82            0   -7743.4385    -86.54543   -98.457806    -100.6042   -60.574289    -106.2521    247.43872   -428.68372    28.803494    28.804087    28.815246     23906.81 
      83            0   -7743.4395    336.17966    326.54779    324.62064    357.37055   -106.46654    247.90389   -429.26663    28.800636    28.801207    28.812716    23899.948 
      84            0   -7743.4448    655.27108    659.51416    660.31531    645.98376    -106.7046    248.24232   -429.65887    28.797891    28.798327     28.81208    23894.753 
      85            0   -7743.4487    267.85453    275.39429    277.13898    251.03032   -106.54844    247.81441   -429.10686    28.800243    28.800645     28.81496    23901.017 
      86            0   -7743.4493   -76.513434   -70.434225   -68.811569   -90.294508   -106.38616    247.44088   -428.63681    28.802549    28.802966    28.817061      23906.6 
      87            0   -7743.4555   -74.339869   -94.591586   -99.908195   -28.519825   -106.36012     247.5615   -428.83427    28.803788     28.80453    28.814181    23906.537 
      88            0   -7743.4562    255.85566    247.72639    245.44197    274.39862   -106.55494     247.8885   -429.22349    28.801059     28.80165    28.813332    23901.178 
      89            0   -7743.4585    202.08765    217.29844    221.34494    167.61958   -106.61139    247.75918   -429.01243    28.800288    28.800582    28.816212    23902.041 
      90            0   -7743.4589   -101.97376   -90.008579   -86.639802   -129.27291   -106.46289    247.43631   -428.61019    28.802418    28.802752    28.817854    23906.971 
      91            0   -7743.4619   -96.713238   -110.75526   -114.69804   -64.686407   -106.41438    247.54568   -428.79485    28.803625    28.804304    28.814974    23906.873 
      92            0   -7743.4624    214.32151    206.41244    204.01718    232.53493   -106.58169    247.87043   -429.19331    28.801309    28.801906    28.813606    23901.825 
      93            0   -7743.4657    218.20425    236.90115    242.22525    175.48634   -106.68399    247.79734   -429.04782    28.800005    28.800238    28.816486    23901.748 
      94            0   -7743.4663   -104.24307   -89.201755   -84.719628   -138.80781   -106.52569    247.45601   -428.62256    28.802273    28.802555    28.818201    23906.976 
      95            0   -7743.4689   -124.49047    -136.7857   -140.45169   -96.234013   -106.45836    247.54168    -428.7788    28.803711    28.804377    28.815321    23907.293 
      96            0   -7743.4694    188.33928    179.49362     176.6669    208.85732   -106.61881    247.87709    -429.1962    28.801512     28.80213    28.813651    23902.216 
      97            0   -7743.4743    333.65906    355.66934    362.34875    282.95908   -106.81457    247.95205   -429.23064    28.799083     28.79925    28.816095    23899.838 
      98            0   -7743.4758    -107.2047   -85.306337   -78.351339   -157.95643   -106.61615    247.47105   -428.62098    28.801949    28.802114    28.818975    23906.983 
      99            0   -7743.4804   -175.28119   -183.23639    -185.8429   -156.76426   -106.53348    247.52384   -428.73671    28.803815    28.804432    28.816095    23908.067 
     100            0   -7743.4812    214.31961    206.37924    203.53583    233.04374   -106.72206    247.95699    -429.2839    28.801281    28.801899    28.813542    23901.743 
Loop time of 0.451831 on 1 procs for 100 steps with 2048 atoms

100.0% CPU use with 1 MPI tasks x 1 OpenMP threads

Minimization stats:
  Stopping criterion = max iterations
  Energy initial, next-to-last, final = 
        -7741.97639323     -7743.48039812     -7743.48116697
  Force two-norm initial, final = 38.3514 6.62225
  Force max component initial, final = 24.6161 3.47498
  Final line search alpha, max atom move = 3.86192e-05 0.000134201
  Iterations, force evaluations = 100 112

MPI task timing breakdown:
Section |  min time  |  avg time  |  max time  |%varavg| %total
---------------------------------------------------------------
Pair    | 0.42927    | 0.42927    | 0.42927    |   0.0 | 95.01
Neigh   | 0.0052024  | 0.0052024  | 0.0052024  |   0.0 |  1.15
Comm    | 0.0017696  | 0.0017696  | 0.0017696  |   0.0 |  0.39
Output  | 0.0025346  | 0.0025346  | 0.0025346  |   0.0 |  0.56
Modify  | 0          | 0          | 0          |   0.0 |  0.00
Other   |            | 0.01306    |            |       |  2.89

Nlocal:    2048 ave 2048 max 2048 min
Histogram: 1 0 0 0 0 0 0 0 0 0
Nghost:    4035 ave 4035 max 4035 min
Histogram: 1 0 0 0 0 0 0 0 0 0
Neighs:    88064 ave 88064 max 88064 min
Histogram: 1 0 0 0 0 0 0 0 0 0

Total # of neighbors = 88064
Ave neighs/atom = 43
Neighbor list builds = 1
Dangerous builds = 0

variable tmp equal pxx
variable pxx0 equal ${tmp}
variable pxx0 equal 206.379243691303
variable tmp equal pyy
variable pyy0 equal ${tmp}
variable pyy0 equal 203.535830084504
variable tmp equal pzz
variable pzz0 equal ${tmp}
variable pzz0 equal 233.043742679295
variable tmp equal pyz
variable pyz0 equal ${tmp}
variable pyz0 equal -429.28389639118
variable tmp equal pxz
variable pxz0 equal ${tmp}
variable pxz0 equal 247.95698569863
variable tmp equal pxy
variable pxy0 equal ${tmp}
variable pxy0 equal -106.722058106374

variable tmp equal lx
variable lx0 equal ${tmp}
variable lx0 equal 28.8012806734442
variable tmp equal ly
variable ly0 equal ${tmp}
variable ly0 equal 28.8018987408201
variable tmp equal lz
variable lz0 equal ${tmp}
variable lz0 equal 28.8135424767999

# These formulas define the derivatives w.r.t. strain components
# Constants uses $, variables use v_
variable d1 equal -(v_pxx1-${pxx0})/(v_delta/v_len0)*${cfac}
variable d1 equal -(v_pxx1-206.379243691303)/(v_delta/v_len0)*${cfac}
variable d1 equal -(v_pxx1-206.379243691303)/(v_delta/v_len0)*0.0001
variable d2 equal -(v_pyy1-${pyy0})/(v_delta/v_len0)*${cfac}
variable d2 equal -(v_pyy1-203.535830084504)/(v_delta/v_len0)*${cfac}
variable d2 equal -(v_pyy1-203.535830084504)/(v_delta/v_len0)*0.0001
variable d3 equal -(v_pzz1-${pzz0})/(v_delta/v_len0)*${cfac}
variable d3 equal -(v_pzz1-233.043742679295)/(v_delta/v_len0)*${cfac}
variable d3 equal -(v_pzz1-233.043742679295)/(v_delta/v_len0)*0.0001
variable d4 equal -(v_pyz1-${pyz0})/(v_delta/v_len0)*${cfac}
variable d4 equal -(v_pyz1--429.28389639118)/(v_delta/v_len0)*${cfac}
variable d4 equal -(v_pyz1--429.28389639118)/(v_delta/v_len0)*0.0001
variable d5 equal -(v_pxz1-${pxz0})/(v_delta/v_len0)*${cfac}
variable d5 equal -(v_pxz1-247.95698569863)/(v_delta/v_len0)*${cfac}
variable d5 equal -(v_pxz1-247.95698569863)/(v_delta/v_len0)*0.0001
variable d6 equal -(v_pxy1-${pxy0})/(v_delta/v_len0)*${cfac}
variable d6 equal -(v_pxy1--106.722058106374)/(v_delta/v_len0)*${cfac}
variable d6 equal -(v_pxy1--106.722058106374)/(v_delta/v_len0)*0.0001

displace_atoms all random ${atomjiggle} ${atomjiggle} ${atomjiggle} 87287 units box
displace_atoms all random 1e-05 ${atomjiggle} ${atomjiggle} 87287 units box
displace_atoms all random 1e-05 1e-05 ${atomjiggle} 87287 units box
displace_atoms all random 1e-05 1e-05 1e-05 87287 units box

# Write restart
unfix 3
write_restart restart.equil

# uxx Perturbation

variable dir equal 1
include displace.mod
# NOTE: This script should not need to be
# modified. See in.elastic for more info.
#
# Find which reference length to use

if "${dir} == 1" then    "variable len0 equal ${lx0}"
variable len0 equal ${lx0}
variable len0 equal 28.8012806734442
if "${dir} == 2" then    "variable len0 equal ${ly0}"
if "${dir} == 3" then    "variable len0 equal ${lz0}"
if "${dir} == 4" then    "variable len0 equal ${lz0}"
if "${dir} == 5" then    "variable len0 equal ${lz0}"
if "${dir} == 6" then    "variable len0 equal ${ly0}"

# Reset box and simulation parameters

clear
OMP_NUM_THREADS environment is not set. Defaulting to 1 thread. (src/comm.cpp:87)
  using 1 OpenMP thread(s) per MPI task
box tilt large
read_restart restart.equil
  restoring atom style atomic from restart
  triclinic box = (-0.000640337 -0.00094937 -0.00677124) to (28.8006 28.8009 28.8068) with tilt (0 0 0)
  1 by 1 by 1 MPI processor grid
  pair style eam/alloy stores no restart info
  2048 atoms
include potential.mod
# NOTE: This script can be modified for different pair styles
# See in.elastic for more info.

# Choose potential
pair_style 	eam/alloy
pair_coeff	* * CuNi.eam.alloy Ni Cu
Reading potential file CuNi.eam.alloy with DATE: 2014-07-11

#pair_style	sw
#pair_coeff * * Si.sw Si

# Setup neighbor style
#neighbor 1.0 nsq
#neigh_modify once no every 1 delay 0 check yes

neighbor                .05 bin
neigh_modify            delay 10 check yes


# Setup minimization style
min_style	     cg
min_modify	     dmax ${dmax} line quadratic
min_modify	     dmax 0.01 line quadratic

# Setup output
thermo		1
thermo_style custom step temp pe press pxx pyy pzz pxy pxz pyz lx ly lz vol
thermo_modify norm no

# Negative deformation

variable delta equal -${up}*${len0}
variable delta equal -1e-07*${len0}
variable delta equal -1e-07*28.8012806734442
variable deltaxy equal -${up}*xy
variable deltaxy equal -1e-07*xy
variable deltaxz equal -${up}*xz
variable deltaxz equal -1e-07*xz
variable deltayz equal -${up}*yz
variable deltayz equal -1e-07*yz
if "${dir} == 1" then    "change_box all x delta 0 ${delta} xy delta ${deltaxy} xz delta ${deltaxz} remap units box"
change_box all x delta 0 ${delta} xy delta ${deltaxy} xz delta ${deltaxz} remap units box
change_box all x delta 0 -2.88012806734442e-06 xy delta ${deltaxy} xz delta ${deltaxz} remap units box
change_box all x delta 0 -2.88012806734442e-06 xy delta -0 xz delta ${deltaxz} remap units box
change_box all x delta 0 -2.88012806734442e-06 xy delta -0 xz delta -0 remap units box
  triclinic box = (-0.000640337 -0.00094937 -0.00677124) to (28.8006 28.8009 28.8068) with tilt (0 0 0)
  triclinic box = (-0.000640337 -0.00094937 -0.00677124) to (28.8006 28.8009 28.8068) with tilt (0 0 0)
  triclinic box = (-0.000640337 -0.00094937 -0.00677124) to (28.8006 28.8009 28.8068) with tilt (0 0 0)
if "${dir} == 2" then    "change_box all y delta 0 ${delta} yz delta ${deltayz} remap units box"
if "${dir} == 3" then    "change_box all z delta 0 ${delta} remap units box"
if "${dir} == 4" then    "change_box all yz delta ${delta} remap units box"
if "${dir} == 5" then    "change_box all xz delta ${delta} remap units box"
if "${dir} == 6" then    "change_box all xy delta ${delta} remap units box"

# Relax atoms positions

minimize ${etol} ${ftol} ${maxiter} ${maxeval}
minimize 0 ${ftol} ${maxiter} ${maxeval}
minimize 0 1e-10 ${maxiter} ${maxeval}
minimize 0 1e-10 100 ${maxeval}
minimize 0 1e-10 100 1000
WARNING: Using 'neigh_modify every 1 delay 0 check yes' setting during minimization (src/min.cpp:168)
Neighbor list info ...
  update every 1 steps, delay 0 steps, check yes
  max neighbors/atom: 2000, page size: 100000
  master list distance cutoff = 6.44433
  ghost atom cutoff = 6.44433
  binsize = 3.22217, bins = 9 9 9
  1 neighbor lists, perpetual/occasional/extra = 1 0 0
  (1) pair eam/alloy, perpetual
      attributes: half, newton on
      pair build: half/bin/newton/tri
      stencil: half/bin/3d/newton/tri
      bin: standard
Per MPI rank memory allocation (min/avg/max) = 4.272 | 4.272 | 4.272 Mbytes
Step Temp PotEng Press Pxx Pyy Pzz Pxy Pxz Pyz Lx Ly Lz Volume 
     100            0   -7743.4812    214.46364    206.55785     203.6609    233.17215   -106.73454    247.95226    -429.2729    28.801278    28.801899    28.813542    23901.741 
     101            0    -7744.034    61.898824    56.421112    53.262152     76.01321   -111.86514    250.45059   -432.73372    28.801278    28.801899    28.813542    23901.741 
     102            0   -7744.3473   -39.181264   -43.477538   -45.941362   -28.124893   -113.66842    250.32213   -434.52335    28.801278    28.801899    28.813542    23901.741 
     103            0   -7744.5175   -104.08805   -108.84767    -109.6508   -93.765678   -110.88676    248.91431    -432.9534    28.801278    28.801899    28.813542    23901.741 
     104            0   -7744.5844   -119.43548   -123.85903   -125.35772   -109.08969   -111.78734      247.655   -430.30939    28.801278    28.801899    28.813542    23901.741 
     105            0   -7744.6004   -130.65325   -135.87173   -135.56528   -120.52273   -110.23619     246.9384   -428.29183    28.801278    28.801899    28.813542    23901.741 
     106            0   -7744.6113   -132.50141   -138.51399   -135.74909   -123.24116   -110.92437    245.73335   -427.02044    28.801278    28.801899    28.813542    23901.741 
     107            0   -7744.6155   -129.37846   -135.31474    -132.7728   -120.04783   -112.44615    245.10773   -426.46242    28.801278    28.801899    28.813542    23901.741 
     108            0   -7744.6182   -127.92176   -133.98964   -131.09541   -118.68022   -113.10455    245.41489   -426.51294    28.801278    28.801899    28.813542    23901.741 
     109            0   -7744.6203   -128.53954   -134.89118   -131.45945     -119.268   -112.99356    245.95886   -426.96259    28.801278    28.801899    28.813542    23901.741 
     110            0   -7744.6211   -128.97978    -135.3608   -131.53917   -120.03937   -113.24234    246.07502   -427.07284    28.801278    28.801899    28.813542    23901.741 
     111            0   -7744.6219   -128.21727   -134.63209   -130.75381    -119.2659   -113.00324     246.4117   -426.90667    28.801278    28.801899    28.813542    23901.741 
     112            0   -7744.6223   -128.20772   -134.68316   -130.69798   -119.24203   -112.95915    246.77207   -426.84759    28.801278    28.801899    28.813542    23901.741 
     113            0   -7744.6226   -128.57434   -135.00151   -131.04496   -119.67655   -113.13502    246.97442    -426.7331    28.801278    28.801899    28.813542    23901.741 
     114            0   -7744.6229   -128.73263   -135.09825   -131.18161   -119.91803   -113.23361    246.94582   -426.42223    28.801278    28.801899    28.813542    23901.741 
     115            0   -7744.6231    -128.7399   -135.12915   -131.11424    -119.9763   -113.19806    246.96886   -426.37346    28.801278    28.801899    28.813542    23901.741 
     116            0   -7744.6232    -128.6814   -134.93679   -131.00704   -120.10036   -113.45685    246.99828   -426.43644    28.801278    28.801899    28.813542    23901.741 
     117            0   -7744.6233   -128.79634   -135.08517   -131.07068   -120.23318   -113.64888    246.88753   -426.28468    28.801278    28.801899    28.813542    23901.741 
     118            0   -7744.6234   -129.01666   -135.28998   -131.28549    -120.4745   -113.70512      246.872   -426.23427    28.801278    28.801899    28.813542    23901.741 
     119            0   -7744.6234   -129.22741   -135.45174   -131.43555   -120.79494   -113.69036    246.86656   -426.17898    28.801278    28.801899    28.813542    23901.741 
     120            0   -7744.6234   -129.25869   -135.49506   -131.47396   -120.80706   -113.67176    246.84834   -426.08739    28.801278    28.801899    28.813542    23901.741 
     121            0   -7744.6235   -129.24938   -135.42163    -131.4851   -120.84141   -113.65389    246.79466   -426.01265    28.801278    28.801899    28.813542    23901.741 
     122            0   -7744.6235   -129.26322   -135.40586   -131.49173   -120.89207    -113.6228     246.7646   -426.00605    28.801278    28.801899    28.813542    23901.741 
     123            0   -7744.6235   -129.27398   -135.38304   -131.50482   -120.93408   -113.58962    246.76188   -426.00002    28.801278    28.801899    28.813542    23901.741 
     124            0   -7744.6235   -129.27912   -135.38802   -131.49506   -120.95427   -113.56671    246.73606   -425.99908    28.801278    28.801899    28.813542    23901.741 
     125            0   -7744.6235   -129.26852   -135.35673   -131.48999   -120.95883    -113.5699    246.71548   -425.99017    28.801278    28.801899    28.813542    23901.741 
     126            0   -7744.6235   -129.26079   -135.33259   -131.48368    -120.9661   -113.56688     246.7022   -425.99425    28.801278    28.801899    28.813542    23901.741 
     127            0   -7744.6235   -129.24332   -135.32059   -131.47295   -120.93643   -113.55132    246.70688    -426.0008    28.801278    28.801899    28.813542    23901.741 
     128            0   -7744.6235   -129.23419   -135.31272   -131.47191   -120.91794   -113.55387    246.70324   -425.99718    28.801278    28.801899    28.813542    23901.741 
     129            0   -7744.6235   -129.23132   -135.31798   -131.46544   -120.91054   -113.56004    246.70093   -425.99964    28.801278    28.801899    28.813542    23901.741 
     130            0   -7744.6235   -129.21674   -135.30955   -131.45327   -120.88741   -113.55863    246.70878   -425.99859    28.801278    28.801899    28.813542    23901.741 
     131            0   -7744.6235   -129.21398   -135.31046   -131.44566    -120.8858   -113.55214    246.70729   -425.99574    28.801278    28.801899    28.813542    23901.741 
     132            0   -7744.6235   -129.21681    -135.3143   -131.44718   -120.88893   -113.54815    246.71102   -425.99868    28.801278    28.801899    28.813542    23901.741 
     133            0   -7744.6235   -129.22311   -135.31961   -131.45444   -120.89528   -113.54753    246.71601   -425.99817    28.801278    28.801899    28.813542    23901.741 
     134            0   -7744.6235   -129.22843   -135.32541   -131.45717    -120.9027    -113.5464    246.71767   -425.99693    28.801278    28.801899    28.813542    23901.741 
     135            0   -7744.6235   -129.23084   -135.32614   -131.45972   -120.90666   -113.54457    246.71791   -425.99743    28.801278    28.801899    28.813542    23901.741 
     136            0   -7744.6235   -129.23068   -135.32458   -131.45853   -120.90894   -113.54243    246.71966   -425.99764    28.801278    28.801899    28.813542    23901.741 
     137            0   -7744.6235   -129.22966   -135.32262   -131.45724    -120.9091   -113.54165    246.71924   -425.99776    28.801278    28.801899    28.813542    23901.741 
     138            0   -7744.6235   -129.22982   -135.32211   -131.45842   -120.90894   -113.54104    246.71912   -425.99796    28.801278    28.801899    28.813542    23901.741 
     139            0   -7744.6235   -129.23003   -135.32214   -131.45896   -120.90898   -113.54059    246.71908   -425.99804    28.801278    28.801899    28.813542    23901.741 
     140            0   -7744.6235   -129.22969   -135.32182   -131.45877   -120.90847   -113.54051    246.71917   -425.99848    28.801278    28.801899    28.813542    23901.741 
     141            0   -7744.6235   -129.22992   -135.32193    -131.4592   -120.90862   -113.54024    246.71906   -425.99868    28.801278    28.801899    28.813542    23901.741 
     142            0   -7744.6235   -129.23025   -135.32225    -131.4594   -120.90911   -113.54015    246.71913   -425.99875    28.801278    28.801899    28.813542    23901.741 
     143            0   -7744.6235   -129.23041   -135.32238   -131.45945   -120.90942   -113.54008    246.71914   -425.99879    28.801278    28.801899    28.813542    23901.741 
     144            0   -7744.6235   -129.23034   -135.32226   -131.45935   -120.90942   -113.54011    246.71909   -425.99881    28.801278    28.801899    28.813542    23901.741 
     145            0   -7744.6235   -129.23026   -135.32215   -131.45917   -120.90946   -113.54011    246.71904   -425.99884    28.801278    28.801899    28.813542    23901.741 
     146            0   -7744.6235   -129.23022   -135.32208   -131.45915   -120.90943   -113.54013    246.71903   -425.99884    28.801278    28.801899    28.813542    23901.741 
     147            0   -7744.6235   -129.23022   -135.32205    -131.4592   -120.90939   -113.54014      246.719   -425.99885    28.801278    28.801899    28.813542    23901.741 
     148            0   -7744.6235   -129.23022   -135.32209    -131.4592   -120.90937   -113.54009    246.71893   -425.99886    28.801278    28.801899    28.813542    23901.741 
     149            0   -7744.6235   -129.23019   -135.32206   -131.45923   -120.90928   -113.54006     246.7189   -425.99886    28.801278    28.801899    28.813542    23901.741 
     150            0   -7744.6235   -129.23018   -135.32208   -131.45928   -120.90919   -113.54005    246.71886   -425.99885    28.801278    28.801899    28.813542    23901.741 
     151            0   -7744.6235   -129.23019   -135.32211   -131.45932   -120.90915   -113.54005    246.71886   -425.99885    28.801278    28.801899    28.813542    23901.741 
     152            0   -7744.6235   -129.23019   -135.32208   -131.45935   -120.90913   -113.54004    246.71886   -425.99884    28.801278    28.801899    28.813542    23901.741 
     153            0   -7744.6235    -129.2302   -135.32209   -131.45937   -120.90913   -113.54003    246.71886   -425.99885    28.801278    28.801899    28.813542    23901.741 
     154            0   -7744.6235   -129.23021   -135.32209   -131.45939   -120.90914   -113.54003    246.71886   -425.99885    28.801278    28.801899    28.813542    23901.741 
     155            0   -7744.6235   -129.23021   -135.32209    -131.4594   -120.90913   -113.54003    246.71886   -425.99886    28.801278    28.801899    28.813542    23901.741 
     156            0   -7744.6235   -129.23021   -135.32209    -131.4594   -120.90913   -113.54003    246.71886   -425.99887    28.801278    28.801899    28.813542    23901.741 
     157            0   -7744.6235   -129.23021   -135.32209   -131.45941   -120.90914   -113.54004    246.71886   -425.99887    28.801278    28.801899    28.813542    23901.741 
     158            0   -7744.6235   -129.23021   -135.32209   -131.45941   -120.90914   -113.54004    246.71887   -425.99886    28.801278    28.801899    28.813542    23901.741 
     159            0   -7744.6235   -129.23022   -135.32209   -131.45941   -120.90914   -113.54004    246.71887   -425.99886    28.801278    28.801899    28.813542    23901.741 
     160            0   -7744.6235   -129.23022   -135.32209   -131.45942   -120.90914   -113.54004    246.71887   -425.99886    28.801278    28.801899    28.813542    23901.741 
     161            0   -7744.6235   -129.23022   -135.32209   -131.45942   -120.90914   -113.54004    246.71887   -425.99886    28.801278    28.801899    28.813542    23901.741 
     162            0   -7744.6235   -129.23022   -135.32209   -131.45942   -120.90914   -113.54004    246.71887   -425.99886    28.801278    28.801899    28.813542    23901.741 
     163            0   -7744.6235   -129.23022   -135.32209   -131.45942   -120.90914   -113.54004    246.71887   -425.99887    28.801278    28.801899    28.813542    23901.741 
     164            0   -7744.6235   -129.23022   -135.32209   -131.45942   -120.90914   -113.54004    246.71887   -425.99887    28.801278    28.801899    28.813542    23901.741 
     165            0   -7744.6235   -129.23022   -135.32209   -131.45942   -120.90914   -113.54004    246.71887   -425.99887    28.801278    28.801899    28.813542    23901.741 
     166            0   -7744.6235   -129.23022   -135.32209   -131.45942   -120.90915   -113.54004    246.71887   -425.99887    28.801278    28.801899    28.813542    23901.741 
     167            0   -7744.6235   -129.23022   -135.32209   -131.45942   -120.90915   -113.54004    246.71887   -425.99887    28.801278    28.801899    28.813542    23901.741 
     168            0   -7744.6235   -129.23022   -135.32209   -131.45942   -120.90915   -113.54004    246.71887   -425.99887    28.801278    28.801899    28.813542    23901.741 
     169            0   -7744.6235   -129.23022   -135.32209   -131.45942   -120.90914   -113.54004    246.71887   -425.99887    28.801278    28.801899    28.813542    23901.741 
     170            0   -7744.6235   -129.23022   -135.32209   -131.45942   -120.90914   -113.54004    246.71887   -425.99887    28.801278    28.801899    28.813542    23901.741 
     171            0   -7744.6235   -129.23022   -135.32209   -131.45942   -120.90914   -113.54004    246.71887   -425.99887    28.801278    28.801899    28.813542    23901.741 
     172            0   -7744.6235   -129.23022   -135.32209   -131.45942   -120.90914   -113.54004    246.71887   -425.99887    28.801278    28.801899    28.813542    23901.741 
     173            0   -7744.6235   -129.23022   -135.32209   -131.45942   -120.90914   -113.54004    246.71887   -425.99887    28.801278    28.801899    28.813542    23901.741 
     174            0   -7744.6235   -129.23022   -135.32209   -131.45942   -120.90914   -113.54004    246.71887   -425.99887    28.801278    28.801899    28.813542    23901.741 
     175            0   -7744.6235   -129.23022   -135.32209   -131.45942   -120.90914   -113.54004    246.71887   -425.99887    28.801278    28.801899    28.813542    23901.741 
     176            0   -7744.6235   -129.23022   -135.32209   -131.45942   -120.90914   -113.54004    246.71887   -425.99887    28.801278    28.801899    28.813542    23901.741 
     177            0   -7744.6235   -129.23022   -135.32209   -131.45942   -120.90914   -113.54004    246.71887   -425.99887    28.801278    28.801899    28.813542    23901.741 
     178            0   -7744.6235   -129.23022   -135.32209   -131.45942   -120.90914   -113.54004    246.71887   -425.99887    28.801278    28.801899    28.813542    23901.741 
     179            0   -7744.6235   -129.23022   -135.32209   -131.45942   -120.90914   -113.54004    246.71887   -425.99887    28.801278    28.801899    28.813542    23901.741 
     180            0   -7744.6235   -129.23022   -135.32209   -131.45942   -120.90914   -113.54004    246.71887   -425.99887    28.801278    28.801899    28.813542    23901.741 
     181            0   -7744.6235   -129.23022   -135.32209   -131.45942   -120.90914   -113.54004    246.71887   -425.99887    28.801278    28.801899    28.813542    23901.741 
     182            0   -7744.6235   -129.23022   -135.32209   -131.45942   -120.90914   -113.54004    246.71887   -425.99887    28.801278    28.801899    28.813542    23901.741 
     183            0   -7744.6235   -129.23022   -135.32209   -131.45942   -120.90914   -113.54004    246.71887   -425.99887    28.801278    28.801899    28.813542    23901.741 
     184            0   -7744.6235   -129.23022   -135.32209   -131.45942   -120.90914   -113.54004    246.71887   -425.99887    28.801278    28.801899    28.813542    23901.741 
     185            0   -7744.6235   -129.23022   -135.32209   -131.45942   -120.90914   -113.54004    246.71887   -425.99887    28.801278    28.801899    28.813542    23901.741 
     186            0   -7744.6235   -129.23022   -135.32209   -131.45942   -120.90914   -113.54004    246.71887   -425.99887    28.801278    28.801899    28.813542    23901.741 
     187            0   -7744.6235   -129.23022   -135.32209   -131.45942   -120.90914   -113.54004    246.71887   -425.99887    28.801278    28.801899    28.813542    23901.741 
     188            0   -7744.6235   -129.23022   -135.32209   -131.45942   -120.90914   -113.54004    246.71887   -425.99887    28.801278    28.801899    28.813542    23901.741 
     189            0   -7744.6235   -129.23022   -135.32209   -131.45942   -120.90914   -113.54004    246.71887   -425.99887    28.801278    28.801899    28.813542    23901.741 
     190            0   -7744.6235   -129.23022   -135.32209   -131.45942   -120.90914   -113.54004    246.71887   -425.99887    28.801278    28.801899    28.813542    23901.741 
     191            0   -7744.6235   -129.23022   -135.32209   -131.45942   -120.90914   -113.54004    246.71887   -425.99887    28.801278    28.801899    28.813542    23901.741 
     192            0   -7744.6235   -129.23022   -135.32209   -131.45942   -120.90914   -113.54004    246.71887   -425.99887    28.801278    28.801899    28.813542    23901.741 
     193            0   -7744.6235   -129.23022   -135.32209   -131.45942   -120.90914   -113.54004    246.71887   -425.99887    28.801278    28.801899    28.813542    23901.741 
Loop time of 0.724606 on 1 procs for 93 steps with 2048 atoms

100.0% CPU use with 1 MPI tasks x 1 OpenMP threads

Minimization stats:
  Stopping criterion = force tolerance
  Energy initial, next-to-last, final = 
        -7743.48116305      -7744.6234741      -7744.6234741
  Force two-norm initial, final = 3.6169 9.40757e-11
  Force max component initial, final = 0.184641 4.63893e-12
  Final line search alpha, max atom move = 1 4.63893e-12
  Iterations, force evaluations = 93 182

MPI task timing breakdown:
Section |  min time  |  avg time  |  max time  |%varavg| %total
---------------------------------------------------------------
Pair    | 0.7002     | 0.7002     | 0.7002     |   0.0 | 96.63
Neigh   | 0.0097051  | 0.0097051  | 0.0097051  |   0.0 |  1.34
Comm    | 0.0029536  | 0.0029536  | 0.0029536  |   0.0 |  0.41
Output  | 0.0024194  | 0.0024194  | 0.0024194  |   0.0 |  0.33
Modify  | 0          | 0          | 0          |   0.0 |  0.00
Other   |            | 0.00933    |            |       |  1.29

Nlocal:    2048 ave 2048 max 2048 min
Histogram: 1 0 0 0 0 0 0 0 0 0
Nghost:    4035 ave 4035 max 4035 min
Histogram: 1 0 0 0 0 0 0 0 0 0
Neighs:    88064 ave 88064 max 88064 min
Histogram: 1 0 0 0 0 0 0 0 0 0

Total # of neighbors = 88064
Ave neighs/atom = 43
Neighbor list builds = 2
Dangerous builds = 0

# Obtain new stress tensor

variable tmp equal pxx
variable pxx1 equal ${tmp}
variable pxx1 equal -135.322092323007
variable tmp equal pyy
variable pyy1 equal ${tmp}
variable pyy1 equal -131.459416844636
variable tmp equal pzz
variable pzz1 equal ${tmp}
variable pzz1 equal -120.909144153038
variable tmp equal pxy
variable pxy1 equal ${tmp}
variable pxy1 equal -113.540039657892
variable tmp equal pxz
variable pxz1 equal ${tmp}
variable pxz1 equal 246.718872431108
variable tmp equal pyz
variable pyz1 equal ${tmp}
variable pyz1 equal -425.998866592729

# Compute elastic constant from pressure tensor

variable C1neg equal ${d1}
variable C1neg equal -341701.33601431
variable C2neg equal ${d2}
variable C2neg equal -334995.24692914
variable C3neg equal ${d3}
variable C3neg equal -353952.886832333
variable C4neg equal ${d4}
variable C4neg equal 3285.02979845103
variable C5neg equal ${d5}
variable C5neg equal -1238.11326752201
variable C6neg equal ${d6}
variable C6neg equal -6817.98155151799

# Reset box and simulation parameters

clear
OMP_NUM_THREADS environment is not set. Defaulting to 1 thread. (src/comm.cpp:87)
  using 1 OpenMP thread(s) per MPI task
box tilt large
read_restart restart.equil
  restoring atom style atomic from restart
  triclinic box = (-0.000640337 -0.00094937 -0.00677124) to (28.8006 28.8009 28.8068) with tilt (0 0 0)
  1 by 1 by 1 MPI processor grid
  pair style eam/alloy stores no restart info
  2048 atoms
include potential.mod
# NOTE: This script can be modified for different pair styles
# See in.elastic for more info.

# Choose potential
pair_style 	eam/alloy
pair_coeff	* * CuNi.eam.alloy Ni Cu
Reading potential file CuNi.eam.alloy with DATE: 2014-07-11

#pair_style	sw
#pair_coeff * * Si.sw Si

# Setup neighbor style
#neighbor 1.0 nsq
#neigh_modify once no every 1 delay 0 check yes

neighbor                .05 bin
neigh_modify            delay 10 check yes


# Setup minimization style
min_style	     cg
min_modify	     dmax ${dmax} line quadratic
min_modify	     dmax 0.01 line quadratic

# Setup output
thermo		1
thermo_style custom step temp pe press pxx pyy pzz pxy pxz pyz lx ly lz vol
thermo_modify norm no

# Positive deformation

variable delta equal ${up}*${len0}
variable delta equal 1e-07*${len0}
variable delta equal 1e-07*28.8012806734442
variable deltaxy equal ${up}*xy
variable deltaxy equal 1e-07*xy
variable deltaxz equal ${up}*xz
variable deltaxz equal 1e-07*xz
variable deltayz equal ${up}*yz
variable deltayz equal 1e-07*yz
if "${dir} == 1" then    "change_box all x delta 0 ${delta} xy delta ${deltaxy} xz delta ${deltaxz} remap units box"
change_box all x delta 0 ${delta} xy delta ${deltaxy} xz delta ${deltaxz} remap units box
change_box all x delta 0 2.88012806734442e-06 xy delta ${deltaxy} xz delta ${deltaxz} remap units box
change_box all x delta 0 2.88012806734442e-06 xy delta 0 xz delta ${deltaxz} remap units box
change_box all x delta 0 2.88012806734442e-06 xy delta 0 xz delta 0 remap units box
  triclinic box = (-0.000640337 -0.00094937 -0.00677124) to (28.8006 28.8009 28.8068) with tilt (0 0 0)
  triclinic box = (-0.000640337 -0.00094937 -0.00677124) to (28.8006 28.8009 28.8068) with tilt (0 0 0)
  triclinic box = (-0.000640337 -0.00094937 -0.00677124) to (28.8006 28.8009 28.8068) with tilt (0 0 0)
if "${dir} == 2" then    "change_box all y delta 0 ${delta} yz delta ${deltayz} remap units box"
if "${dir} == 3" then    "change_box all z delta 0 ${delta} remap units box"
if "${dir} == 4" then    "change_box all yz delta ${delta} remap units box"
if "${dir} == 5" then    "change_box all xz delta ${delta} remap units box"
if "${dir} == 6" then    "change_box all xy delta ${delta} remap units box"

# Relax atoms positions

minimize ${etol} ${ftol} ${maxiter} ${maxeval}
minimize 0 ${ftol} ${maxiter} ${maxeval}
minimize 0 1e-10 ${maxiter} ${maxeval}
minimize 0 1e-10 100 ${maxeval}
minimize 0 1e-10 100 1000
WARNING: Using 'neigh_modify every 1 delay 0 check yes' setting during minimization (src/min.cpp:168)
Neighbor list info ...
  update every 1 steps, delay 0 steps, check yes
  max neighbors/atom: 2000, page size: 100000
  master list distance cutoff = 6.44433
  ghost atom cutoff = 6.44433
  binsize = 3.22217, bins = 9 9 9
  1 neighbor lists, perpetual/occasional/extra = 1 0 0
  (1) pair eam/alloy, perpetual
      attributes: half, newton on
      pair build: half/bin/newton/tri
      stencil: half/bin/3d/newton/tri
      bin: standard
Per MPI rank memory allocation (min/avg/max) = 4.272 | 4.272 | 4.272 Mbytes
Step Temp PotEng Press Pxx Pyy Pzz Pxy Pxz Pyz Lx Ly Lz Volume 
     100            0   -7743.4812    214.16863    206.18286    203.40581    232.91723   -106.73438     247.9518   -429.27288    28.801284    28.801899    28.813542    23901.746 
     101            0    -7744.034    61.604056    56.046584    53.007174    75.758409   -111.86498    250.45013   -432.73371    28.801284    28.801899    28.813542    23901.746 
     102            0   -7744.3473   -39.475998     -43.8519   -46.196377   -28.379719   -113.66827    250.32169   -434.52333    28.801284    28.801899    28.813542    23901.746 
     103            0   -7744.5175   -104.38276   -109.22196    -109.9058   -94.020503    -110.8866    248.91384   -432.95336    28.801284    28.801899    28.813542    23901.746 
     104            0   -7744.5844   -119.72994   -124.23298   -125.61254   -109.34431   -111.78718    247.65456    -430.3094    28.801284    28.801899    28.813542    23901.746 
     105            0   -7744.6004   -130.94764   -136.24564   -135.82002   -120.77727   -110.23602    246.93798   -428.29186    28.801284    28.801899    28.813542    23901.746 
     106            0   -7744.6113   -132.79569   -138.88773   -136.00373   -123.49561    -110.9242    245.73293   -427.02048    28.801284    28.801899    28.813542    23901.746 
     107            0   -7744.6155   -129.67274   -135.68848   -133.02745    -120.3023   -112.44598    245.10731   -426.46245    28.801284    28.801899    28.813542    23901.746 
     108            0   -7744.6182   -128.21602   -134.36337   -131.35004   -118.93466   -113.10436    245.41448   -426.51297    28.801284    28.801899    28.813542    23901.746 
     109            0   -7744.6203    -128.8338   -135.26491   -131.71407   -119.52243   -112.99338    245.95844   -426.96261    28.801284    28.801899    28.813542    23901.746 
     110            0   -7744.6211   -129.27404   -135.73452   -131.79379    -120.2938   -113.24216    246.07459   -427.07286    28.801284    28.801899    28.813542    23901.746 
     111            0   -7744.6219   -128.51151    -135.0058   -131.00841   -119.52032   -113.00306    246.41127   -426.90669    28.801284    28.801899    28.813542    23901.746 
     112            0   -7744.6223   -128.50195   -135.05685   -130.95258   -119.49643   -112.95897    246.77164   -426.84761    28.801284    28.801899    28.813542    23901.746 
     113            0   -7744.6226   -128.86857    -135.3752   -131.29955   -119.93095   -113.13484    246.97398   -426.73311    28.801284    28.801899    28.813542    23901.746 
     114            0   -7744.6229   -129.02685   -135.47193    -131.4362   -120.17242   -113.23344    246.94539   -426.42224    28.801284    28.801899    28.813542    23901.746 
     115            0   -7744.6231   -129.03412   -135.50283   -131.36883   -120.23069   -113.19789    246.96843   -426.37347    28.801284    28.801899    28.813542    23901.746 
     116            0   -7744.6232   -128.97562   -135.31047   -131.26163   -120.35476   -113.45667    246.99785   -426.43646    28.801284    28.801899    28.813542    23901.746 
     117            0   -7744.6233   -129.09057   -135.45886   -131.32527   -120.48758   -113.64871     246.8871    -426.2847    28.801284    28.801899    28.813542    23901.746 
     118            0   -7744.6234   -129.31088   -135.66366   -131.54009    -120.7289   -113.70495    246.87156   -426.23428    28.801284    28.801899    28.813542    23901.746 
     119            0   -7744.6234   -129.52164   -135.82543   -131.69015   -121.04934   -113.69019    246.86612   -426.17899    28.801284    28.801899    28.813542    23901.746 
     120            0   -7744.6234   -129.55292   -135.86874   -131.72855   -121.06146   -113.67159    246.84791   -426.08741    28.801284    28.801899    28.813542    23901.746 
     121            0   -7744.6235    -129.5436   -135.79531   -131.73969   -121.09581   -113.65371    246.79422   -426.01267    28.801284    28.801899    28.813542    23901.746 
     122            0   -7744.6235   -129.55745   -135.77954   -131.74632   -121.14647   -113.62262    246.76417   -426.00606    28.801284    28.801899    28.813542    23901.746 
     123            0   -7744.6235    -129.5682   -135.75672   -131.75941   -121.18848   -113.58944    246.76145   -426.00003    28.801284    28.801899    28.813542    23901.746 
     124            0   -7744.6235   -129.57334    -135.7617   -131.74966   -121.20867   -113.56654    246.73562    -425.9991    28.801284    28.801899    28.813542    23901.746 
     125            0   -7744.6235   -129.56274   -135.73041   -131.74458   -121.21323   -113.56973    246.71505   -425.99018    28.801284    28.801899    28.813542    23901.746 
     126            0   -7744.6235   -129.55501   -135.70627   -131.73827    -121.2205   -113.56671    246.70177   -425.99426    28.801284    28.801899    28.813542    23901.746 
     127            0   -7744.6235   -129.53755   -135.69427   -131.72754   -121.19083   -113.55115    246.70645   -426.00082    28.801284    28.801899    28.813542    23901.746 
     128            0   -7744.6235   -129.52841    -135.6864   -131.72651   -121.17234   -113.55369     246.7028    -425.9972    28.801284    28.801899    28.813542    23901.746 
     129            0   -7744.6235   -129.52555   -135.69166   -131.72004   -121.16495   -113.55987     246.7005   -425.99965    28.801284    28.801899    28.813542    23901.746 
     130            0   -7744.6235   -129.51097   -135.68323   -131.70786   -121.14181   -113.55846    246.70834   -425.99861    28.801284    28.801899    28.813542    23901.746 
     131            0   -7744.6235    -129.5082   -135.68414   -131.70026    -121.1402   -113.55196    246.70686   -425.99576    28.801284    28.801899    28.813542    23901.746 
     132            0   -7744.6235   -129.51103   -135.68798   -131.70178   -121.14333   -113.54798    246.71059   -425.99869    28.801284    28.801899    28.813542    23901.746 
     133            0   -7744.6235   -129.51733   -135.69329   -131.70903   -121.14968   -113.54736    246.71558   -425.99818    28.801284    28.801899    28.813542    23901.746 
     134            0   -7744.6235   -129.52265   -135.69909   -131.71177    -121.1571   -113.54623    246.71724   -425.99695    28.801284    28.801899    28.813542    23901.746 
     135            0   -7744.6235   -129.52507   -135.69982   -131.71432   -121.16106   -113.54439    246.71748   -425.99744    28.801284    28.801899    28.813542    23901.746 
     136            0   -7744.6235   -129.52491   -135.69826   -131.71313   -121.16334   -113.54225    246.71923   -425.99765    28.801284    28.801899    28.813542    23901.746 
     137            0   -7744.6235   -129.52388   -135.69631   -131.71183    -121.1635   -113.54148    246.71881   -425.99778    28.801284    28.801899    28.813542    23901.746 
     138            0   -7744.6235   -129.52405   -135.69579   -131.71302   -121.16334   -113.54086    246.71869   -425.99798    28.801284    28.801899    28.813542    23901.746 
     139            0   -7744.6235   -129.52425   -135.69582   -131.71355   -121.16338   -113.54041    246.71865   -425.99806    28.801284    28.801899    28.813542    23901.746 
     140            0   -7744.6235   -129.52391    -135.6955   -131.71337   -121.16288   -113.54033    246.71874    -425.9985    28.801284    28.801899    28.813542    23901.746 
     141            0   -7744.6235   -129.52414   -135.69561   -131.71379   -121.16302   -113.54007    246.71863   -425.99869    28.801284    28.801899    28.813542    23901.746 
     142            0   -7744.6235   -129.52448   -135.69593     -131.714   -121.16351   -113.53998     246.7187   -425.99877    28.801284    28.801899    28.813542    23901.746 
     143            0   -7744.6235   -129.52464   -135.69606   -131.71404   -121.16382    -113.5399    246.71871    -425.9988    28.801284    28.801899    28.813542    23901.746 
     144            0   -7744.6235   -129.52457   -135.69594   -131.71395   -121.16382   -113.53993    246.71866   -425.99882    28.801284    28.801899    28.813542    23901.746 
     145            0   -7744.6235   -129.52448   -135.69583   -131.71377   -121.16386   -113.53993    246.71861   -425.99886    28.801284    28.801899    28.813542    23901.746 
     146            0   -7744.6235   -129.52445   -135.69576   -131.71374   -121.16383   -113.53996     246.7186   -425.99885    28.801284    28.801899    28.813542    23901.746 
     147            0   -7744.6235   -129.52444   -135.69574   -131.71379   -121.16379   -113.53997    246.71856   -425.99887    28.801284    28.801899    28.813542    23901.746 
     148            0   -7744.6235   -129.52445   -135.69577    -131.7138   -121.16377   -113.53992     246.7185   -425.99888    28.801284    28.801899    28.813542    23901.746 
     149            0   -7744.6235   -129.52441   -135.69574   -131.71382   -121.16368   -113.53989    246.71847   -425.99887    28.801284    28.801899    28.813542    23901.746 
     150            0   -7744.6235   -129.52441   -135.69576   -131.71388   -121.16359   -113.53988    246.71843   -425.99886    28.801284    28.801899    28.813542    23901.746 
     151            0   -7744.6235   -129.52442   -135.69579   -131.71391   -121.16355   -113.53988    246.71843   -425.99886    28.801284    28.801899    28.813542    23901.746 
     152            0   -7744.6235   -129.52441   -135.69576   -131.71394   -121.16353   -113.53987    246.71842   -425.99885    28.801284    28.801899    28.813542    23901.746 
     153            0   -7744.6235   -129.52442   -135.69577   -131.71396   -121.16353   -113.53986    246.71842   -425.99886    28.801284    28.801899    28.813542    23901.746 
     154            0   -7744.6235   -129.52443   -135.69577   -131.71398   -121.16354   -113.53986    246.71843   -425.99887    28.801284    28.801899    28.813542    23901.746 
     155            0   -7744.6235   -129.52443   -135.69577     -131.714   -121.16353   -113.53986    246.71843   -425.99888    28.801284    28.801899    28.813542    23901.746 
     156            0   -7744.6235   -129.52443   -135.69577     -131.714   -121.16354   -113.53986    246.71843   -425.99888    28.801284    28.801899    28.813542    23901.746 
     157            0   -7744.6235   -129.52444   -135.69577     -131.714   -121.16354   -113.53986    246.71843   -425.99888    28.801284    28.801899    28.813542    23901.746 
     158            0   -7744.6235   -129.52444   -135.69577   -131.71401   -121.16354   -113.53986    246.71843   -425.99888    28.801284    28.801899    28.813542    23901.746 
     159            0   -7744.6235   -129.52444   -135.69577   -131.71401   -121.16354   -113.53987    246.71844   -425.99888    28.801284    28.801899    28.813542    23901.746 
     160            0   -7744.6235   -129.52444   -135.69577   -131.71401   -121.16354   -113.53987    246.71844   -425.99888    28.801284    28.801899    28.813542    23901.746 
     161            0   -7744.6235   -129.52444   -135.69577   -131.71401   -121.16354   -113.53987    246.71844   -425.99888    28.801284    28.801899    28.813542    23901.746 
     162            0   -7744.6235   -129.52444   -135.69577   -131.71401   -121.16354   -113.53987    246.71844   -425.99888    28.801284    28.801899    28.813542    23901.746 
     163            0   -7744.6235   -129.52444   -135.69577   -131.71401   -121.16355   -113.53987    246.71844   -425.99888    28.801284    28.801899    28.813542    23901.746 
     164            0   -7744.6235   -129.52444   -135.69577   -131.71401   -121.16355   -113.53987    246.71844   -425.99888    28.801284    28.801899    28.813542    23901.746 
     165            0   -7744.6235   -129.52444   -135.69577   -131.71401   -121.16355   -113.53987    246.71844   -425.99888    28.801284    28.801899    28.813542    23901.746 
     166            0   -7744.6235   -129.52444   -135.69577   -131.71401   -121.16355   -113.53987    246.71844   -425.99888    28.801284    28.801899    28.813542    23901.746 
     167            0   -7744.6235   -129.52444   -135.69577   -131.71401   -121.16355   -113.53987    246.71844   -425.99888    28.801284    28.801899    28.813542    23901.746 
     168            0   -7744.6235   -129.52444   -135.69577   -131.71401   -121.16355   -113.53987    246.71844   -425.99888    28.801284    28.801899    28.813542    23901.746 
     169            0   -7744.6235   -129.52444   -135.69577   -131.71401   -121.16355   -113.53987    246.71844   -425.99888    28.801284    28.801899    28.813542    23901.746 
     170            0   -7744.6235   -129.52444   -135.69577   -131.71401   -121.16355   -113.53987    246.71844   -425.99888    28.801284    28.801899    28.813542    23901.746 
     171            0   -7744.6235   -129.52444   -135.69577   -131.71401   -121.16354   -113.53987    246.71844   -425.99888    28.801284    28.801899    28.813542    23901.746 
     172            0   -7744.6235   -129.52444   -135.69577   -131.71401   -121.16354   -113.53987    246.71844   -425.99888    28.801284    28.801899    28.813542    23901.746 
     173            0   -7744.6235   -129.52444   -135.69577   -131.71401   -121.16354   -113.53987    246.71844   -425.99888    28.801284    28.801899    28.813542    23901.746 
     174            0   -7744.6235   -129.52444   -135.69577   -131.71401   -121.16354   -113.53987    246.71844   -425.99888    28.801284    28.801899    28.813542    23901.746 
     175            0   -7744.6235   -129.52444   -135.69577   -131.71401   -121.16354   -113.53987    246.71844   -425.99888    28.801284    28.801899    28.813542    23901.746 
     176            0   -7744.6235   -129.52444   -135.69577   -131.71401   -121.16354   -113.53987    246.71844   -425.99888    28.801284    28.801899    28.813542    23901.746 
     177            0   -7744.6235   -129.52444   -135.69577   -131.71401   -121.16355   -113.53987    246.71844   -425.99888    28.801284    28.801899    28.813542    23901.746 
     178            0   -7744.6235   -129.52444   -135.69577   -131.71401   -121.16355   -113.53987    246.71844   -425.99888    28.801284    28.801899    28.813542    23901.746 
     179            0   -7744.6235   -129.52444   -135.69577   -131.71401   -121.16355   -113.53987    246.71844   -425.99888    28.801284    28.801899    28.813542    23901.746 
     180            0   -7744.6235   -129.52444   -135.69577   -131.71401   -121.16355   -113.53987    246.71844   -425.99888    28.801284    28.801899    28.813542    23901.746 
     181            0   -7744.6235   -129.52444   -135.69577   -131.71401   -121.16355   -113.53987    246.71844   -425.99888    28.801284    28.801899    28.813542    23901.746 
     182            0   -7744.6235   -129.52444   -135.69577   -131.71401   -121.16355   -113.53987    246.71844   -425.99888    28.801284    28.801899    28.813542    23901.746 
     183            0   -7744.6235   -129.52444   -135.69577   -131.71401   -121.16355   -113.53987    246.71844   -425.99888    28.801284    28.801899    28.813542    23901.746 
     184            0   -7744.6235   -129.52444   -135.69577   -131.71401   -121.16355   -113.53987    246.71844   -425.99888    28.801284    28.801899    28.813542    23901.746 
     185            0   -7744.6235   -129.52444   -135.69577   -131.71401   -121.16355   -113.53987    246.71844   -425.99888    28.801284    28.801899    28.813542    23901.746 
     186            0   -7744.6235   -129.52444   -135.69577   -131.71401   -121.16355   -113.53987    246.71844   -425.99888    28.801284    28.801899    28.813542    23901.746 
     187            0   -7744.6235   -129.52444   -135.69577   -131.71401   -121.16355   -113.53987    246.71844   -425.99888    28.801284    28.801899    28.813542    23901.746 
     188            0   -7744.6235   -129.52444   -135.69577   -131.71401   -121.16355   -113.53987    246.71844   -425.99888    28.801284    28.801899    28.813542    23901.746 
     189            0   -7744.6235   -129.52444   -135.69577   -131.71401   -121.16355   -113.53987    246.71844   -425.99888    28.801284    28.801899    28.813542    23901.746 
     190            0   -7744.6235   -129.52444   -135.69577   -131.71401   -121.16355   -113.53987    246.71844   -425.99888    28.801284    28.801899    28.813542    23901.746 
     191            0   -7744.6235   -129.52444   -135.69577   -131.71401   -121.16355   -113.53987    246.71844   -425.99888    28.801284    28.801899    28.813542    23901.746 
     192            0   -7744.6235   -129.52444   -135.69577   -131.71401   -121.16355   -113.53987    246.71844   -425.99888    28.801284    28.801899    28.813542    23901.746 
     193            0   -7744.6235   -129.52444   -135.69577   -131.71401   -121.16355   -113.53987    246.71844   -425.99888    28.801284    28.801899    28.813542    23901.746 
Loop time of 0.709634 on 1 procs for 93 steps with 2048 atoms

100.0% CPU use with 1 MPI tasks x 1 OpenMP threads

Minimization stats:
  Stopping criterion = force tolerance
  Energy initial, next-to-last, final = 
        -7743.48116366      -7744.6234737      -7744.6234737
  Force two-norm initial, final = 3.6169 9.40762e-11
  Force max component initial, final = 0.184641 4.62034e-12
  Final line search alpha, max atom move = 1 4.62034e-12
  Iterations, force evaluations = 93 182

MPI task timing breakdown:
Section |  min time  |  avg time  |  max time  |%varavg| %total
---------------------------------------------------------------
Pair    | 0.68676    | 0.68676    | 0.68676    |   0.0 | 96.78
Neigh   | 0.0094494  | 0.0094494  | 0.0094494  |   0.0 |  1.33
Comm    | 0.003003   | 0.003003   | 0.003003   |   0.0 |  0.42
Output  | 0.0024481  | 0.0024481  | 0.0024481  |   0.0 |  0.34
Modify  | 0          | 0          | 0          |   0.0 |  0.00
Other   |            | 0.007977   |            |       |  1.12

Nlocal:    2048 ave 2048 max 2048 min
Histogram: 1 0 0 0 0 0 0 0 0 0
Nghost:    4035 ave 4035 max 4035 min
Histogram: 1 0 0 0 0 0 0 0 0 0
Neighs:    88064 ave 88064 max 88064 min
Histogram: 1 0 0 0 0 0 0 0 0 0

Total # of neighbors = 88064
Ave neighs/atom = 43
Neighbor list builds = 2
Dangerous builds = 0

# Obtain new stress tensor

variable tmp equal pe
variable e1 equal ${tmp}
variable e1 equal -7744.62347369795
variable tmp equal press
variable p1 equal ${tmp}
variable p1 equal -129.524443472721
variable tmp equal pxx
variable pxx1 equal ${tmp}
variable pxx1 equal -135.695772982878
variable tmp equal pyy
variable pyy1 equal ${tmp}
variable pyy1 equal -131.71401238719
variable tmp equal pzz
variable pzz1 equal ${tmp}
variable pzz1 equal -121.163545048095
variable tmp equal pxy
variable pxy1 equal ${tmp}
variable pxy1 equal -113.539866966246
variable tmp equal pxz
variable pxz1 equal ${tmp}
variable pxz1 equal 246.718439530752
variable tmp equal pyz
variable pyz1 equal ${tmp}
variable pyz1 equal -425.998882647115

# Compute elastic constant from pressure tensor

variable C1pos equal ${d1}
variable C1pos equal 342075.016674181
variable C2pos equal ${d2}
variable C2pos equal 335249.842471694
variable C3pos equal ${d3}
variable C3pos equal 354207.28772739
variable C4pos equal ${d4}
variable C4pos equal -3285.013744065
variable C5pos equal ${d5}
variable C5pos equal 1238.54616787801
variable C6pos equal ${d6}
variable C6pos equal 6817.80885987199

# Combine positive and negative

variable C1${dir} equal 0.5*(${C1neg}+${C1pos})
variable C11 equal 0.5*(${C1neg}+${C1pos})
variable C11 equal 0.5*(-341701.33601431+${C1pos})
variable C11 equal 0.5*(-341701.33601431+342075.016674181)
variable C2${dir} equal 0.5*(${C2neg}+${C2pos})
variable C21 equal 0.5*(${C2neg}+${C2pos})
variable C21 equal 0.5*(-334995.24692914+${C2pos})
variable C21 equal 0.5*(-334995.24692914+335249.842471694)
variable C3${dir} equal 0.5*(${C3neg}+${C3pos})
variable C31 equal 0.5*(${C3neg}+${C3pos})
variable C31 equal 0.5*(-353952.886832333+${C3pos})
variable C31 equal 0.5*(-353952.886832333+354207.28772739)
variable C4${dir} equal 0.5*(${C4neg}+${C4pos})
variable C41 equal 0.5*(${C4neg}+${C4pos})
variable C41 equal 0.5*(3285.02979845103+${C4pos})
variable C41 equal 0.5*(3285.02979845103+-3285.013744065)
variable C5${dir} equal 0.5*(${C5neg}+${C5pos})
variable C51 equal 0.5*(${C5neg}+${C5pos})
variable C51 equal 0.5*(-1238.11326752201+${C5pos})
variable C51 equal 0.5*(-1238.11326752201+1238.54616787801)
variable C6${dir} equal 0.5*(${C6neg}+${C6pos})
variable C61 equal 0.5*(${C6neg}+${C6pos})
variable C61 equal 0.5*(-6817.98155151799+${C6pos})
variable C61 equal 0.5*(-6817.98155151799+6817.80885987199)

# Delete dir to make sure it is not reused

variable dir delete

# uyy Perturbation

variable dir equal 2
include displace.mod
# NOTE: This script should not need to be
# modified. See in.elastic for more info.
#
# Find which reference length to use

if "${dir} == 1" then    "variable len0 equal ${lx0}"
if "${dir} == 2" then    "variable len0 equal ${ly0}"
variable len0 equal ${ly0}
variable len0 equal 28.8018987408201
if "${dir} == 3" then    "variable len0 equal ${lz0}"
if "${dir} == 4" then    "variable len0 equal ${lz0}"
if "${dir} == 5" then    "variable len0 equal ${lz0}"
if "${dir} == 6" then    "variable len0 equal ${ly0}"

# Reset box and simulation parameters

clear
OMP_NUM_THREADS environment is not set. Defaulting to 1 thread. (src/comm.cpp:87)
  using 1 OpenMP thread(s) per MPI task
box tilt large
read_restart restart.equil
  restoring atom style atomic from restart
  triclinic box = (-0.000640337 -0.00094937 -0.00677124) to (28.8006 28.8009 28.8068) with tilt (0 0 0)
  1 by 1 by 1 MPI processor grid
  pair style eam/alloy stores no restart info
  2048 atoms
include potential.mod
# NOTE: This script can be modified for different pair styles
# See in.elastic for more info.

# Choose potential
pair_style 	eam/alloy
pair_coeff	* * CuNi.eam.alloy Ni Cu
Reading potential file CuNi.eam.alloy with DATE: 2014-07-11

#pair_style	sw
#pair_coeff * * Si.sw Si

# Setup neighbor style
#neighbor 1.0 nsq
#neigh_modify once no every 1 delay 0 check yes

neighbor                .05 bin
neigh_modify            delay 10 check yes


# Setup minimization style
min_style	     cg
min_modify	     dmax ${dmax} line quadratic
min_modify	     dmax 0.01 line quadratic

# Setup output
thermo		1
thermo_style custom step temp pe press pxx pyy pzz pxy pxz pyz lx ly lz vol
thermo_modify norm no

# Negative deformation

variable delta equal -${up}*${len0}
variable delta equal -1e-07*${len0}
variable delta equal -1e-07*28.8018987408201
variable deltaxy equal -${up}*xy
variable deltaxy equal -1e-07*xy
variable deltaxz equal -${up}*xz
variable deltaxz equal -1e-07*xz
variable deltayz equal -${up}*yz
variable deltayz equal -1e-07*yz
if "${dir} == 1" then    "change_box all x delta 0 ${delta} xy delta ${deltaxy} xz delta ${deltaxz} remap units box"
if "${dir} == 2" then    "change_box all y delta 0 ${delta} yz delta ${deltayz} remap units box"
change_box all y delta 0 ${delta} yz delta ${deltayz} remap units box
change_box all y delta 0 -2.88018987408201e-06 yz delta ${deltayz} remap units box
change_box all y delta 0 -2.88018987408201e-06 yz delta -0 remap units box
  triclinic box = (-0.000640337 -0.00094937 -0.00677124) to (28.8006 28.8009 28.8068) with tilt (0 0 0)
  triclinic box = (-0.000640337 -0.00094937 -0.00677124) to (28.8006 28.8009 28.8068) with tilt (0 0 0)
if "${dir} == 3" then    "change_box all z delta 0 ${delta} remap units box"
if "${dir} == 4" then    "change_box all yz delta ${delta} remap units box"
if "${dir} == 5" then    "change_box all xz delta ${delta} remap units box"
if "${dir} == 6" then    "change_box all xy delta ${delta} remap units box"

# Relax atoms positions

minimize ${etol} ${ftol} ${maxiter} ${maxeval}
minimize 0 ${ftol} ${maxiter} ${maxeval}
minimize 0 1e-10 ${maxiter} ${maxeval}
minimize 0 1e-10 100 ${maxeval}
minimize 0 1e-10 100 1000
WARNING: Using 'neigh_modify every 1 delay 0 check yes' setting during minimization (src/min.cpp:168)
Neighbor list info ...
  update every 1 steps, delay 0 steps, check yes
  max neighbors/atom: 2000, page size: 100000
  master list distance cutoff = 6.44433
  ghost atom cutoff = 6.44433
  binsize = 3.22217, bins = 9 9 9
  1 neighbor lists, perpetual/occasional/extra = 1 0 0
  (1) pair eam/alloy, perpetual
      attributes: half, newton on
      pair build: half/bin/newton/tri
      stencil: half/bin/3d/newton/tri
      bin: standard
Per MPI rank memory allocation (min/avg/max) = 4.272 | 4.272 | 4.272 Mbytes
Step Temp PotEng Press Pxx Pyy Pzz Pxy Pxz Pyz Lx Ly Lz Volume 
     100            0   -7743.4812    214.46355     206.4979     203.7208    233.17196   -106.73457    247.95207   -429.27317    28.801281    28.801896    28.813542    23901.741 
     101            0    -7744.034    61.898789    56.361384    53.321921    76.013062   -111.86517     250.4504     -432.734    28.801281    28.801896    28.813542    23901.741 
     102            0   -7744.3473   -39.181295    -43.53716   -45.881691   -28.125034   -113.66845    250.32195   -434.52363    28.801281    28.801896    28.813542    23901.741 
     103            0   -7744.5175    -104.0881   -108.90728   -109.59119   -93.765841   -110.88679    248.91413   -432.95367    28.801281    28.801896    28.813542    23901.741 
     104            0   -7744.5844   -119.43558   -123.91861   -125.29822   -109.08989   -111.78737    247.65482   -430.30966    28.801281    28.801896    28.813542    23901.741 
     105            0   -7744.6004   -130.65333   -135.93131   -135.50576   -120.52292   -110.23622    246.93822   -428.29211    28.801281    28.801896    28.813542    23901.741 
     106            0   -7744.6113    -132.5015   -138.57354    -135.6896   -123.24136   -110.92441    245.73316   -427.02071    28.801281    28.801896    28.813542    23901.741 
     107            0   -7744.6155   -129.37853   -135.37427   -132.71331   -120.04802   -112.44618    245.10755   -426.46269    28.801281    28.801896    28.813542    23901.741 
[...]
     147            0   -7744.6235   -129.37726   -135.50883   -131.58638   -121.03656   -113.62881    246.71869   -425.99888    28.801281    28.801899    28.813542    23901.743 
     148            0   -7744.6235   -129.37726   -135.50887   -131.58638   -121.03654   -113.62875    246.71862   -425.99889    28.801281    28.801899    28.813542    23901.743 
     149            0   -7744.6235   -129.37723   -135.50883   -131.58641   -121.03645   -113.62872    246.71859   -425.99889    28.801281    28.801899    28.813542    23901.743 
     150            0   -7744.6235   -129.37722   -135.50885   -131.58646   -121.03635   -113.62872    246.71855   -425.99887    28.801281    28.801899    28.813542    23901.743 
     151            0   -7744.6235   -129.37723   -135.50888    -131.5865   -121.03632   -113.62871    246.71855   -425.99887    28.801281    28.801899    28.813542    23901.743 
     152            0   -7744.6235   -129.37723   -135.50886   -131.58653    -121.0363   -113.62871    246.71855   -425.99887    28.801281    28.801899    28.813542    23901.743 
     153            0   -7744.6235   -129.37724   -135.50887   -131.58655    -121.0363    -113.6287    246.71855   -425.99888    28.801281    28.801899    28.813542    23901.743 
     154            0   -7744.6235   -129.37725   -135.50887   -131.58657    -121.0363    -113.6287    246.71855   -425.99888    28.801281    28.801899    28.813542    23901.743 
     155            0   -7744.6235   -129.37725   -135.50886   -131.58658    -121.0363    -113.6287    246.71855   -425.99889    28.801281    28.801899    28.813542    23901.743 
     156            0   -7744.6235   -129.37725   -135.50886   -131.58658    -121.0363    -113.6287    246.71855   -425.99889    28.801281    28.801899    28.813542    23901.743 
     157            0   -7744.6235   -129.37725   -135.50886   -131.58659    -121.0363    -113.6287    246.71856   -425.99889    28.801281    28.801899    28.813542    23901.743 
     158            0   -7744.6235   -129.37725   -135.50886   -131.58659   -121.03631    -113.6287    246.71856   -425.99889    28.801281    28.801899    28.813542    23901.743 
     159            0   -7744.6235   -129.37726   -135.50887   -131.58659   -121.03631    -113.6287    246.71856   -425.99889    28.801281    28.801899    28.813542    23901.743 
     160            0   -7744.6235   -129.37726   -135.50887    -131.5866   -121.03631    -113.6287    246.71856   -425.99889    28.801281    28.801899    28.813542    23901.743 
     161            0   -7744.6235   -129.37726   -135.50887    -131.5866   -121.03631    -113.6287    246.71856   -425.99889    28.801281    28.801899    28.813542    23901.743 
     162            0   -7744.6235   -129.37726   -135.50887    -131.5866   -121.03631    -113.6287    246.71856   -425.99889    28.801281    28.801899    28.813542    23901.743 
     163            0   -7744.6235   -129.37726   -135.50887    -131.5866   -121.03631   -113.62871    246.71856   -425.99889    28.801281    28.801899    28.813542    23901.743 
     164            0   -7744.6235   -129.37726   -135.50887    -131.5866   -121.03631    -113.6287    246.71856   -425.99889    28.801281    28.801899    28.813542    23901.743 
     165            0   -7744.6235   -129.37726   -135.50887    -131.5866   -121.03631    -113.6287    246.71856   -425.99889    28.801281    28.801899    28.813542    23901.743 
     166            0   -7744.6235   -129.37726   -135.50887    -131.5866   -121.03631    -113.6287    246.71856   -425.99889    28.801281    28.801899    28.813542    23901.743 
     167            0   -7744.6235   -129.37726   -135.50887    -131.5866   -121.03631    -113.6287    246.71856   -425.99889    28.801281    28.801899    28.813542    23901.743 
     168            0   -7744.6235   -129.37726   -135.50887    -131.5866   -121.03631    -113.6287    246.71856   -425.99889    28.801281    28.801899    28.813542    23901.743 
     169            0   -7744.6235   -129.37726   -135.50887    -131.5866   -121.03631    -113.6287    246.71856   -425.99889    28.801281    28.801899    28.813542    23901.743 
     170            0   -7744.6235   -129.37726   -135.50887    -131.5866   -121.03631    -113.6287    246.71856   -425.99889    28.801281    28.801899    28.813542    23901.743 
     171            0   -7744.6235   -129.37726   -135.50887    -131.5866   -121.03631    -113.6287    246.71856   -425.99889    28.801281    28.801899    28.813542    23901.743 
     172            0   -7744.6235   -129.37726   -135.50887    -131.5866   -121.03631    -113.6287    246.71856   -425.99889    28.801281    28.801899    28.813542    23901.743 
     173            0   -7744.6235   -129.37726   -135.50887    -131.5866   -121.03631    -113.6287    246.71856   -425.99889    28.801281    28.801899    28.813542    23901.743 
     174            0   -7744.6235   -129.37726   -135.50887    -131.5866   -121.03631    -113.6287    246.71856   -425.99889    28.801281    28.801899    28.813542    23901.743 
     175            0   -7744.6235   -129.37726   -135.50887    -131.5866   -121.03631    -113.6287    246.71856   -425.99889    28.801281    28.801899    28.813542    23901.743 
     176            0   -7744.6235   -129.37726   -135.50887    -131.5866   -121.03631    -113.6287    246.71856   -425.99889    28.801281    28.801899    28.813542    23901.743 
     177            0   -7744.6235   -129.37726   -135.50887    -131.5866   -121.03631    -113.6287    246.71856   -425.99889    28.801281    28.801899    28.813542    23901.743 
     178            0   -7744.6235   -129.37726   -135.50887    -131.5866   -121.03631    -113.6287    246.71856   -425.99889    28.801281    28.801899    28.813542    23901.743 
     179            0   -7744.6235   -129.37726   -135.50887    -131.5866   -121.03631    -113.6287    246.71856   -425.99889    28.801281    28.801899    28.813542    23901.743 
     180            0   -7744.6235   -129.37726   -135.50887    -131.5866   -121.03631    -113.6287    246.71856   -425.99889    28.801281    28.801899    28.813542    23901.743 
     181            0   -7744.6235   -129.37726   -135.50887    -131.5866   -121.03631    -113.6287    246.71856   -425.99889    28.801281    28.801899    28.813542    23901.743 
     182            0   -7744.6235   -129.37726   -135.50887    -131.5866   -121.03631    -113.6287    246.71856   -425.99889    28.801281    28.801899    28.813542    23901.743 
     183            0   -7744.6235   -129.37726   -135.50887    -131.5866   -121.03631    -113.6287    246.71856   -425.99889    28.801281    28.801899    28.813542    23901.743 
     184            0   -7744.6235   -129.37726   -135.50887    -131.5866   -121.03631    -113.6287    246.71856   -425.99889    28.801281    28.801899    28.813542    23901.743 
     185            0   -7744.6235   -129.37726   -135.50887    -131.5866   -121.03631    -113.6287    246.71856   -425.99889    28.801281    28.801899    28.813542    23901.743 
     186            0   -7744.6235   -129.37726   -135.50887    -131.5866   -121.03631    -113.6287    246.71856   -425.99889    28.801281    28.801899    28.813542    23901.743 
     187            0   -7744.6235   -129.37726   -135.50887    -131.5866   -121.03631    -113.6287    246.71856   -425.99889    28.801281    28.801899    28.813542    23901.743 
     188            0   -7744.6235   -129.37726   -135.50887    -131.5866   -121.03631    -113.6287    246.71856   -425.99889    28.801281    28.801899    28.813542    23901.743 
     189            0   -7744.6235   -129.37726   -135.50887    -131.5866   -121.03631    -113.6287    246.71856   -425.99889    28.801281    28.801899    28.813542    23901.743 
     190            0   -7744.6235   -129.37726   -135.50887    -131.5866   -121.03631    -113.6287    246.71856   -425.99889    28.801281    28.801899    28.813542    23901.743 
     191            0   -7744.6235   -129.37726   -135.50887    -131.5866   -121.03631    -113.6287    246.71856   -425.99889    28.801281    28.801899    28.813542    23901.743 
     192            0   -7744.6235   -129.37726   -135.50887    -131.5866   -121.03631    -113.6287    246.71856   -425.99889    28.801281    28.801899    28.813542    23901.743 
     193            0   -7744.6235   -129.37726   -135.50887    -131.5866   -121.03631    -113.6287    246.71856   -425.99889    28.801281    28.801899    28.813542    23901.743 
Loop time of 0.714036 on 1 procs for 93 steps with 2048 atoms

100.0% CPU use with 1 MPI tasks x 1 OpenMP threads

Minimization stats:
  Stopping criterion = force tolerance
  Energy initial, next-to-last, final = 
         -7743.4811632     -7744.62347373     -7744.62347373
  Force two-norm initial, final = 3.6169 9.4069e-11
  Force max component initial, final = 0.184641 4.62126e-12
  Final line search alpha, max atom move = 1 4.62126e-12
  Iterations, force evaluations = 93 182

MPI task timing breakdown:
Section |  min time  |  avg time  |  max time  |%varavg| %total
---------------------------------------------------------------
Pair    | 0.69216    | 0.69216    | 0.69216    |   0.0 | 96.94
Neigh   | 0.0098775  | 0.0098775  | 0.0098775  |   0.0 |  1.38
Comm    | 0.0029218  | 0.0029218  | 0.0029218  |   0.0 |  0.41
Output  | 0.0024046  | 0.0024046  | 0.0024046  |   0.0 |  0.34
Modify  | 0          | 0          | 0          |   0.0 |  0.00
Other   |            | 0.006673   |            |       |  0.93

Nlocal:    2048 ave 2048 max 2048 min
Histogram: 1 0 0 0 0 0 0 0 0 0
Nghost:    4035 ave 4035 max 4035 min
Histogram: 1 0 0 0 0 0 0 0 0 0
Neighs:    88064 ave 88064 max 88064 min
Histogram: 1 0 0 0 0 0 0 0 0 0

Total # of neighbors = 88064
Ave neighs/atom = 43
Neighbor list builds = 2
Dangerous builds = 0

# Obtain new stress tensor

variable tmp equal pe
variable e1 equal ${tmp}
variable e1 equal -7744.6234737306
variable tmp equal press
variable p1 equal ${tmp}
variable p1 equal -129.377259237185
variable tmp equal pxx
variable pxx1 equal ${tmp}
variable pxx1 equal -135.50886905786
variable tmp equal pyy
variable pyy1 equal ${tmp}
variable pyy1 equal -131.586596531962
variable tmp equal pzz
variable pzz1 equal ${tmp}
variable pzz1 equal -121.036312121735
variable tmp equal pxy
variable pxy1 equal ${tmp}
variable pxy1 equal -113.628704147246
variable tmp equal pxz
variable pxz1 equal ${tmp}
variable pxz1 equal 246.718563777179
variable tmp equal pyz
variable pyz1 equal ${tmp}
variable pyz1 equal -425.998892880256

# Compute elastic constant from pressure tensor

variable C1pos equal ${d1}
variable C1pos equal 341888.112749163
variable C2pos equal ${d2}
variable C2pos equal 335122.426616466
variable C3pos equal ${d3}
variable C3pos equal 354080.05480103
variable C4pos equal ${d4}
variable C4pos equal -3285.00351092401
variable C5pos equal ${d5}
variable C5pos equal 1238.42192145099
variable C6pos equal ${d6}
variable C6pos equal 6906.64604087199

# Combine positive and negative

variable C1${dir} equal 0.5*(${C1neg}+${C1pos})
variable C16 equal 0.5*(${C1neg}+${C1pos})
variable C16 equal 0.5*(-341888.240024799+${C1pos})
variable C16 equal 0.5*(-341888.240024799+341888.112749163)
variable C2${dir} equal 0.5*(${C2neg}+${C2pos})
variable C26 equal 0.5*(${C2neg}+${C2pos})
variable C26 equal 0.5*(-335122.662809643+${C2pos})
variable C26 equal 0.5*(-335122.662809643+335122.426616466)
variable C3${dir} equal 0.5*(${C3neg}+${C3pos})
variable C36 equal 0.5*(${C3neg}+${C3pos})
variable C36 equal 0.5*(-354080.119859562+${C3pos})
variable C36 equal 0.5*(-354080.119859562+354080.05480103)
variable C4${dir} equal 0.5*(${C4neg}+${C4pos})
variable C46 equal 0.5*(${C4neg}+${C4pos})
variable C46 equal 0.5*(3285.04003164699+${C4pos})
variable C46 equal 0.5*(3285.04003164699+-3285.00351092401)
variable C5${dir} equal 0.5*(${C5neg}+${C5pos})
variable C56 equal 0.5*(${C5neg}+${C5pos})
variable C56 equal 0.5*(-1238.23751400701+${C5pos})
variable C56 equal 0.5*(-1238.23751400701+1238.42192145099)
variable C6${dir} equal 0.5*(${C6neg}+${C6pos})
variable C66 equal 0.5*(${C6neg}+${C6pos})
variable C66 equal 0.5*(-6729.14437025199+${C6pos})
variable C66 equal 0.5*(-6729.14437025199+6906.64604087199)

# Delete dir to make sure it is not reused

variable dir delete

# Output final values

variable C11all equal ${C11}
variable C11all equal 186.840329935483
variable C22all equal ${C22}
variable C22all equal 186.775618173997
variable C33all equal ${C33}
variable C33all equal 186.915138645505

variable C12all equal 0.5*(${C12}+${C21})
variable C12all equal 0.5*(127.297379012016+${C21})
variable C12all equal 0.5*(127.297379012016+127.297771276993)
variable C13all equal 0.5*(${C13}+${C31})
variable C13all equal 0.5*(127.199000269989+${C31})
variable C13all equal 0.5*(127.199000269989+127.200447528507)
variable C23all equal 0.5*(${C23}+${C32})
variable C23all equal 0.5*(127.009647998988+${C32})
variable C23all equal 0.5*(127.009647998988+127.010702973494)

variable C44all equal ${C44}
variable C44all equal 88.4309222714999
variable C55all equal ${C55}
variable C55all equal 88.65163294
variable C66all equal ${C66}
variable C66all equal 88.7508353100002

variable C14all equal 0.5*(${C14}+${C41})
variable C14all equal 0.5*(0.0506270529876929+${C41})
variable C14all equal 0.5*(0.0506270529876929+0.00802719301486832)
variable C15all equal 0.5*(${C15}+${C51})
variable C15all equal 0.5*(0.167106404987862+${C51})
variable C15all equal 0.5*(0.167106404987862+0.216450178000059)
variable C16all equal 0.5*(${C16}+${C61})
variable C16all equal 0.5*(-0.0636378180061001+${C61})
variable C16all equal 0.5*(-0.0636378180061001+-0.0863458230001015)

variable C24all equal 0.5*(${C24}+${C42})
variable C24all equal 0.5*(-0.179916036489885+${C42})
variable C24all equal 0.5*(-0.179916036489885+-0.265115762004825)
variable C25all equal 0.5*(${C25}+${C52})
variable C25all equal 0.5*(0.00939532401389442+${C52})
variable C25all equal 0.5*(0.00939532401389442+0.0340672989999575)
variable C26all equal 0.5*(${C26}+${C62})
variable C26all equal 0.5*(-0.118096588499611+${C62})
variable C26all equal 0.5*(-0.118096588499611+-0.118096602500373)

variable C34all equal 0.5*(${C34}+${C43})
variable C34all equal 0.5*(-0.318078393494943+${C43})
variable C34all equal 0.5*(-0.318078393494943+-0.318078366999998)
variable C35all equal 0.5*(${C35}+${C53})
variable C35all equal 0.5*(0.200540349498624+${C53})
variable C35all equal 0.5*(0.200540349498624+0.200540408999927)
variable C36all equal 0.5*(${C36}+${C63})
variable C36all equal 0.5*(-0.0325292659981642+${C63})
variable C36all equal 0.5*(-0.0325292659981642+-0.0438832249951702)

variable C45all equal 0.5*(${C45}+${C54})
variable C45all equal 0.5*(-0.0284357290099706+${C54})
variable C45all equal 0.5*(-0.0284357290099706+-0.0284356919900119)
variable C46all equal 0.5*(${C46}+${C64})
variable C46all equal 0.5*(0.0182603614900927+${C64})
variable C46all equal 0.5*(0.0182603614900927+-0.006411506504719)
variable C56all equal 0.5*(${C56}+${C65})
variable C56all equal 0.5*(0.0922037219900176+${C65})
variable C56all equal 0.5*(0.0922037219900176+0.0922035855051035)

# Average moduli for cubic crystals

variable C11cubic equal (${C11all}+${C22all}+${C33all})/3.0
variable C11cubic equal (186.840329935483+${C22all}+${C33all})/3.0
variable C11cubic equal (186.840329935483+186.775618173997+${C33all})/3.0
variable C11cubic equal (186.840329935483+186.775618173997+186.915138645505)/3.0
variable C12cubic equal (${C12all}+${C13all}+${C23all})/3.0
variable C12cubic equal (127.297575144504+${C13all}+${C23all})/3.0
variable C12cubic equal (127.297575144504+127.199723899248+${C23all})/3.0
variable C12cubic equal (127.297575144504+127.199723899248+127.010175486241)/3.0
variable C44cubic equal (${C44all}+${C55all}+${C66all})/3.0
variable C44cubic equal (88.4309222714999+${C55all}+${C66all})/3.0
variable C44cubic equal (88.4309222714999+88.65163294+${C66all})/3.0
variable C44cubic equal (88.4309222714999+88.65163294+88.7508353100002)/3.0

variable bulkmodulus equal (${C11cubic}+2*${C12cubic})/3.0
variable bulkmodulus equal (186.843695584995+2*${C12cubic})/3.0
variable bulkmodulus equal (186.843695584995+2*127.169158176664)/3.0
variable shearmodulus1 equal ${C44cubic}
variable shearmodulus1 equal 88.6111301738334
variable shearmodulus2 equal (${C11cubic}-${C12cubic})/2.0
variable shearmodulus2 equal (186.843695584995-${C12cubic})/2.0
variable shearmodulus2 equal (186.843695584995-127.169158176664)/2.0
variable poissonratio equal 1.0/(1.0+${C11cubic}/${C12cubic})
variable poissonratio equal 1.0/(1.0+186.843695584995/${C12cubic})
variable poissonratio equal 1.0/(1.0+186.843695584995/127.169158176664)

# For Stillinger-Weber silicon, the analytical results
# are known to be (E. R. Cowley, 1988):
#               C11 = 151.4 GPa
#               C12 = 76.4 GPa
#               C44 = 56.4 GPa

print "========================================="
=========================================
print "Components of the Elastic Constant Tensor"
Components of the Elastic Constant Tensor
print "========================================="
=========================================

print "Elastic Constant C11all = ${C11all} ${cunits}"
Elastic Constant C11all = 186.840329935483 GPa
print "Elastic Constant C22all = ${C22all} ${cunits}"
Elastic Constant C22all = 186.775618173997 GPa
print "Elastic Constant C33all = ${C33all} ${cunits}"
Elastic Constant C33all = 186.915138645505 GPa

print "Elastic Constant C12all = ${C12all} ${cunits}"
Elastic Constant C12all = 127.297575144504 GPa
print "Elastic Constant C13all = ${C13all} ${cunits}"
Elastic Constant C13all = 127.199723899248 GPa
print "Elastic Constant C23all = ${C23all} ${cunits}"
Elastic Constant C23all = 127.010175486241 GPa

print "Elastic Constant C44all = ${C44all} ${cunits}"
Elastic Constant C44all = 88.4309222714999 GPa
print "Elastic Constant C55all = ${C55all} ${cunits}"
Elastic Constant C55all = 88.65163294 GPa
print "Elastic Constant C66all = ${C66all} ${cunits}"
Elastic Constant C66all = 88.7508353100002 GPa

print "Elastic Constant C14all = ${C14all} ${cunits}"
Elastic Constant C14all = 0.0293271230012806 GPa
print "Elastic Constant C15all = ${C15all} ${cunits}"
Elastic Constant C15all = 0.191778291493961 GPa
print "Elastic Constant C16all = ${C16all} ${cunits}"
Elastic Constant C16all = -0.0749918205031008 GPa

print "Elastic Constant C24all = ${C24all} ${cunits}"
Elastic Constant C24all = -0.222515899247355 GPa
print "Elastic Constant C25all = ${C25all} ${cunits}"
Elastic Constant C25all = 0.021731311506926 GPa
print "Elastic Constant C26all = ${C26all} ${cunits}"
Elastic Constant C26all = -0.118096595499992 GPa

print "Elastic Constant C34all = ${C34all} ${cunits}"
Elastic Constant C34all = -0.31807838024747 GPa
print "Elastic Constant C35all = ${C35all} ${cunits}"
Elastic Constant C35all = 0.200540379249276 GPa
print "Elastic Constant C36all = ${C36all} ${cunits}"
Elastic Constant C36all = -0.0382062454966672 GPa

print "Elastic Constant C45all = ${C45all} ${cunits}"
Elastic Constant C45all = -0.0284357104999913 GPa
print "Elastic Constant C46all = ${C46all} ${cunits}"
Elastic Constant C46all = 0.00592442749268685 GPa
print "Elastic Constant C56all = ${C56all} ${cunits}"
Elastic Constant C56all = 0.0922036537475606 GPa

print "========================================="
=========================================
print "Average properties for a cubic crystal"
Average properties for a cubic crystal
print "========================================="
=========================================

print "Bulk Modulus = ${bulkmodulus} ${cunits}"
Bulk Modulus = 147.060670646108 GPa
print "Shear Modulus 1 = ${shearmodulus1} ${cunits}"
Shear Modulus 1 = 88.6111301738334 GPa
print "Shear Modulus 2 = ${shearmodulus2} ${cunits}"
Shear Modulus 2 = 29.8372687041655 GPa
print "Poisson Ratio = ${poissonratio}"
Poisson Ratio = 0.404980740925935
Total wall time: 0:00:09
