
units metal
dimension 3
boundary p p p
atom_style atomic
#atom_modify map array

#----------------- CREATE ATOMS ------------------------
#region simR block 0 8.092 0 4.046 0 4.046 #use change_box to reshape sim box
#region solidBase block 0 4.046 0 4.046 0 4.046 #create_box reshapes sim box to fit new atoms
#create_box 2 solidBase
read_data data.conc1 group conc1Atoms
  triclinic box = (0 0 0) to (14.52 14.52 14.52) with tilt (0 0 0)
  1 by 1 by 1 MPI processor grid
  reading atoms ...
  256 atoms
  read_data CPU = 0.000462141 secs
#read_data data.conc3 add append group conc3Atoms
#read_data atom.data add append
#group baseAtoms region solidBase


# --------- DEFINE INTERATOMIC POTENTIAL ---------

pair_style eam/alloy
pair_coeff * * CuNi.eam.alloy Ni Cu
Reading potential file CuNi.eam.alloy with DATE: 2014-07-11
neighbor .05 bin
neigh_modify delay 10 check yes

# -------------- DEFFINE SETTINGS ----------------

#COMPUTES (do in Pylammps)

#---------------------- RUN ------------------------

#MINIMIZATION/RUN (do in pylammps)

info system
read_data data.conc9 add append shift 14.52 0 0 group conc9Atoms
  triclinic box = (0 0 0) to (36.3 21.78 21.78) with tilt (0 0 0)
  1 by 1 by 1 MPI processor grid
  reading atoms ...
  864 atoms
  read_data CPU = 0.000623856 secs
reset_timestep 0
timestep 0.001
thermo 100
thermo_style custom step atoms temp vol press pe etotal
dump 2 all custom 10 pos.XYZ id type x y z
info groups
fix 0 all nve
fix 1 all langevin 400 400 0.1 761 zero yes
run 10000
Neighbor list info ...
  update every 1 steps, delay 10 steps, check yes
  max neighbors/atom: 2000, page size: 100000
  master list distance cutoff = 6.44433
  ghost atom cutoff = 6.44433
  binsize = 3.22217, bins = 12 7 7
  1 neighbor lists, perpetual/occasional/extra = 1 0 0
  (1) pair eam/alloy, perpetual
      attributes: half, newton on
      pair build: half/bin/newton/tri
      stencil: half/bin/3d/newton/tri
      bin: standard
Per MPI rank memory allocation (min/avg/max) = 4.738 | 4.738 | 4.738 Mbytes
Step Atoms Temp Volume Press PotEng TotEng 
       0     1120            0    17219.573   -29379.289    -3898.863    -3898.863 
     100     1120    254.76659    17219.573   -14635.086   -3867.1529   -3830.3029 
     200     1120    340.32916    17219.573   -11687.629    -3851.084   -3801.8581 
     300     1120     383.3112    17219.573   -9098.8805   -3845.6204   -3790.1774 
     400     1120    389.79935    17219.573   -12306.867   -3844.7007   -3788.3193 
     500     1120    385.89047    17219.573   -14182.309   -3845.7345   -3789.9185 
     600     1120    396.35524    17219.573   -12901.666   -3845.1609   -3787.8313 
     700     1120    393.59627    17219.573   -12990.232   -3845.1366    -3788.206 
     800     1120    407.76239    17219.573   -14784.962   -3845.6311   -3786.6515 
     900     1120    393.95486    17219.573   -14968.065   -3842.7917   -3785.8092 
    1000     1120    409.22756    17219.573   -16055.805   -3844.7715     -3785.58 
    1100     1120    398.29703    17219.573   -15870.791   -3843.3416   -3785.7311 
    1200     1120    420.63914    17219.573    -14875.21   -3842.4337   -3781.5916 
    1300     1120    436.21274    17219.573   -15468.226   -3841.7067    -3778.612 
    1400     1120    404.08342    17219.573   -15646.217   -3840.0355   -3781.5881 
    1500     1120    399.54591    17219.573   -17312.306   -3842.8917   -3785.1006 
    1600     1120    403.04035    17219.573   -17210.609    -3844.457   -3786.1604 
    1700     1120    395.01043    17219.573   -13765.017   -3840.7184   -3783.5832 
    1800     1120    401.77772    17219.573   -13879.424   -3842.3441   -3784.2301 
    1900     1120    404.25473    17219.573   -16053.332   -3844.7006   -3786.2284 
    2000     1120    394.40913    17219.573   -14160.023   -3842.5441   -3785.4959 
    2100     1120    404.71121    17219.573   -14042.466    -3842.436   -3783.8978 
    2200     1120    405.70255    17219.573   -15297.648   -3841.7811   -3783.0994 
    2300     1120    398.99246    17219.573   -16810.681   -3843.9189   -3786.2078 
    2400     1120    400.69438    17219.573   -14943.445   -3843.2943    -3785.337 
    2500     1120    405.75031    17219.573   -15952.404   -3843.4567   -3784.7681 
    2600     1120    391.07258    17219.573   -16322.322   -3841.2778   -3784.7122 
    2700     1120    392.46822    17219.573   -18935.568   -3842.2532   -3785.4858 
    2800     1120    401.86894    17219.573    -18165.54   -3841.7576   -3783.6304 
    2900     1120    391.26645    17219.573   -17759.203   -3841.5536     -3784.96 
    3000     1120    401.60428    17219.573   -16713.238   -3842.7576   -3784.6687 
    3100     1120    426.45439    17219.573   -15697.837   -3841.3758   -3779.6926 
    3200     1120    409.60959    17219.573   -16963.999   -3843.8242   -3784.5774 
    3300     1120     396.4684    17219.573   -14392.896   -3841.5221   -3784.1761 
    3400     1120    403.21332    17219.573   -16027.703   -3841.7446    -3783.423 
    3500     1120    394.27657    17219.573   -16947.527   -3842.2547   -3785.2258 
    3600     1120    411.38623    17219.573   -16422.077   -3844.6201   -3785.1163 
    3700     1120     384.7773    17219.573   -13995.959   -3841.0971   -3785.4421 
    3800     1120    400.15089    17219.573   -14973.066   -3842.8879   -3785.0092 
    3900     1120    402.41729    17219.573   -14505.186    -3841.213   -3783.0065 
    4000     1120    404.78948    17219.573   -16451.006   -3843.6701   -3785.1205 
    4100     1120    391.23815    17219.573   -17815.954   -3843.9619   -3787.3724 
    4200     1120    413.54413    17219.573   -16658.888   -3844.7041   -3784.8882 
    4300     1120    395.84169    17219.573   -16315.231   -3844.2173   -3786.9619 
    4400     1120    394.83117    17219.573   -17069.872   -3844.5012    -3787.392 
    4500     1120    400.75861    17219.573   -16346.243   -3841.1395    -3783.173 
    4600     1120    410.49398    17219.573   -17744.878   -3841.4625   -3782.0878 
    4700     1120    416.26138    17219.573   -15987.391   -3840.3174   -3780.1085 
    4800     1120    404.62899    17219.573    -15857.95   -3839.6436   -3781.1172 
    4900     1120    395.90179    17219.573   -15782.981   -3843.7206   -3786.4565 
    5000     1120    412.89378    17219.573   -16872.468   -3840.6694   -3780.9475 
    5100     1120     415.8353    17219.573   -16220.216   -3839.8116   -3779.6643 
    5200     1120     412.7669    17219.573   -17410.327    -3840.303   -3780.5996 
    5300     1120    417.88761    17219.573   -17606.079   -3839.4229   -3778.9788 
    5400     1120    400.79753    17219.573   -15755.044   -3838.9607   -3780.9885 
    5500     1120    416.79841    17219.573   -15853.393   -3841.5251   -3781.2385 
    5600     1120    404.66969    17219.573   -14718.383   -3840.0132   -3781.4809 
    5700     1120    410.47748    17219.573   -16399.107   -3840.2344   -3780.8621 
    5800     1120    405.87719    17219.573   -15296.022   -3841.3983   -3782.6913 
    5900     1120    411.93605    17219.573   -15586.716   -3842.9418   -3783.3585 
    6000     1120    396.13764    17219.573   -16859.564   -3845.6044   -3788.3062 
    6100     1120    393.05869    17219.573   -16899.787     -3843.67   -3786.8171 
    6200     1120    395.23068    17219.573   -18144.653    -3840.153    -3782.986 
    6300     1120    402.96486    17219.573   -18101.355   -3842.7727    -3784.487 
    6400     1120    388.27645    17219.573   -17665.629   -3843.4094   -3787.2483 
    6500     1120    387.80284    17219.573   -17830.154   -3842.9224   -3786.8298 
    6600     1120    401.89657    17219.573   -15646.411    -3846.233   -3788.1018 
    6700     1120    394.93927    17219.573   -16699.557   -3844.2921   -3787.1673 
    6800     1120    419.51022    17219.573   -16911.861   -3842.3685   -3781.6896 
    6900     1120    386.79958    17219.573   -18501.428   -3845.1129   -3789.1654 
    7000     1120     409.2713    17219.573   -15567.647   -3841.5621   -3782.3642 
    7100     1120    402.52636    17219.573    -16702.95   -3842.5491   -3784.3268 
    7200     1120    405.15944    17219.573   -16141.069   -3843.2083   -3784.6052 
    7300     1120    393.56521    17219.573   -17126.511   -3842.9981    -3786.072 
    7400     1120    396.14234    17219.573   -15126.354   -3842.2909   -3784.9921 
    7500     1120    400.19759    17219.573   -14923.722   -3841.3406   -3783.4552 
    7600     1120    396.40205    17219.573   -15382.108    -3841.124   -3783.7876 
    7700     1120    401.48887    17219.573   -14766.108   -3840.3552    -3782.283 
    7800     1120    415.55681    17219.573   -16529.457   -3842.8992   -3782.7922 
    7900     1120    413.02983    17219.573   -14977.862   -3842.0274   -3782.2859 
    8000     1120    391.75947    17219.573   -14746.435   -3840.0955   -3783.4306 
    8100     1120    396.60269    17219.573   -15346.743   -3842.7099   -3785.3445 
    8200     1120    389.97856    17219.573   -17154.013   -3842.5077   -3786.1004 
    8300     1120     401.9907    17219.573    -15497.05   -3843.8045   -3785.6597 
    8400     1120    406.18058    17219.573   -15505.503   -3845.0275   -3786.2767 
    8500     1120    399.54002    17219.573   -13191.867   -3844.1232   -3786.3329 
    8600     1120    402.86438    17219.573   -13586.373   -3844.4826   -3786.2114 
    8700     1120    404.75439    17219.573   -16110.058   -3845.2633   -3786.7188 
    8800     1120    394.31018    17219.573   -15954.615   -3842.8657   -3785.8319 
    8900     1120      388.488    17219.573   -15945.557   -3841.7751   -3785.5834 
    9000     1120    399.20304    17219.573   -16898.925   -3842.7021   -3784.9605 
    9100     1120    409.18111    17219.573   -16773.017   -3842.6537   -3783.4689 
    9200     1120    398.57576    17219.573   -16630.247   -3841.9479   -3784.2971 
    9300     1120    414.86612    17219.573   -17097.727   -3843.8408   -3783.8337 
    9400     1120    414.59128    17219.573   -16768.992   -3843.3043    -3783.337 
    9500     1120    397.75437    17219.573   -16350.352   -3840.5769   -3783.0449 
    9600     1120    408.62098    17219.573   -16677.378   -3843.2717   -3784.1679 
    9700     1120    387.61532    17219.573    -16356.31   -3841.6793   -3785.6138 
    9800     1120    401.52748    17219.573   -16010.591   -3844.2319   -3786.1541 
    9900     1120     400.3859    17219.573   -16632.327   -3844.5065   -3786.5939 
   10000     1120    382.77881    17219.573   -17065.852   -3840.7257   -3785.3597 
Loop time of 21.1901 on 1 procs for 10000 steps with 1120 atoms

Performance: 40.774 ns/day, 0.589 hours/ns, 471.919 timesteps/s
99.8% CPU use with 1 MPI tasks x no OpenMP threads

MPI task timing breakdown:
Section |  min time  |  avg time  |  max time  |%varavg| %total
---------------------------------------------------------------
Pair    | 17.347     | 17.347     | 17.347     |   0.0 | 81.86
Neigh   | 2.004      | 2.004      | 2.004      |   0.0 |  9.46
Comm    | 0.12863    | 0.12863    | 0.12863    |   0.0 |  0.61
Output  | 1.1082     | 1.1082     | 1.1082     |   0.0 |  5.23
Modify  | 0.56261    | 0.56261    | 0.56261    |   0.0 |  2.66
Other   |            | 0.03956    |            |       |  0.19

Nlocal:    1120 ave 1120 max 1120 min
Histogram: 1 0 0 0 0 0 0 0 0 0
Nghost:    2451 ave 2451 max 2451 min
Histogram: 1 0 0 0 0 0 0 0 0 0
Neighs:    42724 ave 42724 max 42724 min
Histogram: 1 0 0 0 0 0 0 0 0 0

Total # of neighbors = 42724
Ave neighs/atom = 38.1464
Neighbor list builds = 999
Dangerous builds = 998
Total wall time: 0:00:21
