CuNi atom datafile for lammps scripts 

4 atoms
2 atom types
0.0 3.63 xlo xhi
0.0 3.63 ylo yhi
0.0 3.63 zlo zhi
0.0 0.0 0.0 xy xz yz

Atoms

1 1 0.0 0.0 0.0
2 2 1.815 1.815 0.0
3 1 1.815 0.0 1.815
4 1 0.0 1.815 1.815
