Lammps Data File for CuNi

256 	atoms

2	atom types

0.0	14.4	xlo xhi
0.0	14.4	ylo yhi
0.0	14.4	zlo zhi
0.0	0.0	0.0	xy xz yz

Atoms

	1	1	0.0	0.0	0.0
	2	2	1.8	1.8	0.0
	3	2	0.0	1.8	1.8
	4	2	1.8	0.0	1.8
	5	2	0.0	0.0	3.6
	6	2	1.8	1.8	3.6
	7	2	0.0	1.8	5.4
	8	2	1.8	0.0	5.4
	9	2	0.0	0.0	7.2
	10	1	1.8	1.8	7.2
	11	1	0.0	1.8	9.0
	12	2	1.8	0.0	9.0
	13	2	0.0	0.0	10.8
	14	2	1.8	1.8	10.8
	15	2	0.0	1.8	12.6
	16	2	1.8	0.0	12.6
	17	2	0.0	3.6	0.0
	18	2	1.8	5.4	0.0
	19	1	0.0	5.4	1.8
	20	2	1.8	3.6	1.8
	21	1	0.0	3.6	3.6
	22	1	1.8	5.4	3.6
	23	2	0.0	5.4	5.4
	24	2	1.8	3.6	5.4
	25	2	0.0	3.6	7.2
	26	2	1.8	5.4	7.2
	27	2	0.0	5.4	9.0
	28	2	1.8	3.6	9.0
	29	2	0.0	3.6	10.8
	30	1	1.8	5.4	10.8
	31	2	0.0	5.4	12.6
	32	2	1.8	3.6	12.6
	33	2	0.0	7.2	0.0
	34	2	1.8	9.0	0.0
	35	2	0.0	9.0	1.8
	36	1	1.8	7.2	1.8
	37	2	0.0	7.2	3.6
	38	1	1.8	9.0	3.6
	39	2	0.0	9.0	5.4
	40	1	1.8	7.2	5.4
	41	1	0.0	7.2	7.2
	42	2	1.8	9.0	7.2
	43	2	0.0	9.0	9.0
	44	2	1.8	7.2	9.0
	45	2	0.0	7.2	10.8
	46	2	1.8	9.0	10.8
	47	1	0.0	9.0	12.6
	48	2	1.8	7.2	12.6
	49	1	0.0	10.8	0.0
	50	2	1.8	12.6	0.0
	51	1	0.0	12.6	1.8
	52	2	1.8	10.8	1.8
	53	1	0.0	10.8	3.6
	54	2	1.8	12.6	3.6
	55	2	0.0	12.6	5.4
	56	1	1.8	10.8	5.4
	57	2	0.0	10.8	7.2
	58	2	1.8	12.6	7.2
	59	2	0.0	12.6	9.0
	60	2	1.8	10.8	9.0
	61	1	0.0	10.8	10.8
	62	2	1.8	12.6	10.8
	63	2	0.0	12.6	12.6
	64	2	1.8	10.8	12.6
	65	2	3.6	0.0	0.0
	66	1	5.4	1.8	0.0
	67	2	3.6	1.8	1.8
	68	2	5.4	0.0	1.8
	69	2	3.6	0.0	3.6
	70	1	5.4	1.8	3.6
	71	2	3.6	1.8	5.4
	72	2	5.4	0.0	5.4
	73	2	3.6	0.0	7.2
	74	1	5.4	1.8	7.2
	75	2	3.6	1.8	9.0
	76	2	5.4	0.0	9.0
	77	1	3.6	0.0	10.8
	78	2	5.4	1.8	10.8
	79	1	3.6	1.8	12.6
	80	2	5.4	0.0	12.6
	81	2	3.6	3.6	0.0
	82	1	5.4	5.4	0.0
	83	2	3.6	5.4	1.8
	84	2	5.4	3.6	1.8
	85	1	3.6	3.6	3.6
	86	1	5.4	5.4	3.6
	87	1	3.6	5.4	5.4
	88	2	5.4	3.6	5.4
	89	1	3.6	3.6	7.2
	90	1	5.4	5.4	7.2
	91	2	3.6	5.4	9.0
	92	2	5.4	3.6	9.0
	93	2	3.6	3.6	10.8
	94	1	5.4	5.4	10.8
	95	1	3.6	5.4	12.6
	96	2	5.4	3.6	12.6
	97	2	3.6	7.2	0.0
	98	2	5.4	9.0	0.0
	99	2	3.6	9.0	1.8
	100	1	5.4	7.2	1.8
	101	1	3.6	7.2	3.6
	102	1	5.4	9.0	3.6
	103	2	3.6	9.0	5.4
	104	2	5.4	7.2	5.4
	105	2	3.6	7.2	7.2
	106	1	5.4	9.0	7.2
	107	2	3.6	9.0	9.0
	108	1	5.4	7.2	9.0
	109	2	3.6	7.2	10.8
	110	1	5.4	9.0	10.8
	111	2	3.6	9.0	12.6
	112	2	5.4	7.2	12.6
	113	2	3.6	10.8	0.0
	114	2	5.4	12.6	0.0
	115	2	3.6	12.6	1.8
	116	1	5.4	10.8	1.8
	117	2	3.6	10.8	3.6
	118	1	5.4	12.6	3.6
	119	2	3.6	12.6	5.4
	120	2	5.4	10.8	5.4
	121	1	3.6	10.8	7.2
	122	1	5.4	12.6	7.2
	123	2	3.6	12.6	9.0
	124	2	5.4	10.8	9.0
	125	1	3.6	10.8	10.8
	126	2	5.4	12.6	10.8
	127	1	3.6	12.6	12.6
	128	2	5.4	10.8	12.6
	129	2	7.2	0.0	0.0
	130	1	9.0	1.8	0.0
	131	2	7.2	1.8	1.8
	132	2	9.0	0.0	1.8
	133	2	7.2	0.0	3.6
	134	2	9.0	1.8	3.6
	135	1	7.2	1.8	5.4
	136	2	9.0	0.0	5.4
	137	2	7.2	0.0	7.2
	138	2	9.0	1.8	7.2
	139	2	7.2	1.8	9.0
	140	2	9.0	0.0	9.0
	141	2	7.2	0.0	10.8
	142	2	9.0	1.8	10.8
	143	2	7.2	1.8	12.6
	144	2	9.0	0.0	12.6
	145	2	7.2	3.6	0.0
	146	2	9.0	5.4	0.0
	147	2	7.2	5.4	1.8
	148	2	9.0	3.6	1.8
	149	1	7.2	3.6	3.6
	150	2	9.0	5.4	3.6
	151	2	7.2	5.4	5.4
	152	2	9.0	3.6	5.4
	153	2	7.2	3.6	7.2
	154	2	9.0	5.4	7.2
	155	1	7.2	5.4	9.0
	156	2	9.0	3.6	9.0
	157	1	7.2	3.6	10.8
	158	2	9.0	5.4	10.8
	159	2	7.2	5.4	12.6
	160	2	9.0	3.6	12.6
	161	1	7.2	7.2	0.0
	162	2	9.0	9.0	0.0
	163	2	7.2	9.0	1.8
	164	1	9.0	7.2	1.8
	165	2	7.2	7.2	3.6
	166	1	9.0	9.0	3.6
	167	2	7.2	9.0	5.4
	168	2	9.0	7.2	5.4
	169	2	7.2	7.2	7.2
	170	2	9.0	9.0	7.2
	171	1	7.2	9.0	9.0
	172	1	9.0	7.2	9.0
	173	1	7.2	7.2	10.8
	174	2	9.0	9.0	10.8
	175	2	7.2	9.0	12.6
	176	2	9.0	7.2	12.6
	177	2	7.2	10.8	0.0
	178	2	9.0	12.6	0.0
	179	1	7.2	12.6	1.8
	180	2	9.0	10.8	1.8
	181	2	7.2	10.8	3.6
	182	2	9.0	12.6	3.6
	183	1	7.2	12.6	5.4
	184	2	9.0	10.8	5.4
	185	1	7.2	10.8	7.2
	186	1	9.0	12.6	7.2
	187	2	7.2	12.6	9.0
	188	1	9.0	10.8	9.0
	189	2	7.2	10.8	10.8
	190	1	9.0	12.6	10.8
	191	1	7.2	12.6	12.6
	192	2	9.0	10.8	12.6
	193	2	10.8	0.0	0.0
	194	2	12.6	1.8	0.0
	195	1	10.8	1.8	1.8
	196	2	12.6	0.0	1.8
	197	2	10.8	0.0	3.6
	198	2	12.6	1.8	3.6
	199	2	10.8	1.8	5.4
	200	1	12.6	0.0	5.4
	201	2	10.8	0.0	7.2
	202	2	12.6	1.8	7.2
	203	2	10.8	1.8	9.0
	204	2	12.6	0.0	9.0
	205	2	10.8	0.0	10.8
	206	2	12.6	1.8	10.8
	207	1	10.8	1.8	12.6
	208	1	12.6	0.0	12.6
	209	2	10.8	3.6	0.0
	210	1	12.6	5.4	0.0
	211	2	10.8	5.4	1.8
	212	1	12.6	3.6	1.8
	213	2	10.8	3.6	3.6
	214	2	12.6	5.4	3.6
	215	1	10.8	5.4	5.4
	216	1	12.6	3.6	5.4
	217	2	10.8	3.6	7.2
	218	2	12.6	5.4	7.2
	219	1	10.8	5.4	9.0
	220	2	12.6	3.6	9.0
	221	2	10.8	3.6	10.8
	222	2	12.6	5.4	10.8
	223	2	10.8	5.4	12.6
	224	2	12.6	3.6	12.6
	225	2	10.8	7.2	0.0
	226	1	12.6	9.0	0.0
	227	2	10.8	9.0	1.8
	228	2	12.6	7.2	1.8
	229	2	10.8	7.2	3.6
	230	2	12.6	9.0	3.6
	231	1	10.8	9.0	5.4
	232	2	12.6	7.2	5.4
	233	2	10.8	7.2	7.2
	234	2	12.6	9.0	7.2
	235	2	10.8	9.0	9.0
	236	2	12.6	7.2	9.0
	237	1	10.8	7.2	10.8
	238	2	12.6	9.0	10.8
	239	2	10.8	9.0	12.6
	240	1	12.6	7.2	12.6
	241	1	10.8	10.8	0.0
	242	2	12.6	12.6	0.0
	243	2	10.8	12.6	1.8
	244	2	12.6	10.8	1.8
	245	2	10.8	10.8	3.6
	246	1	12.6	12.6	3.6
	247	2	10.8	12.6	5.4
	248	2	12.6	10.8	5.4
	249	2	10.8	10.8	7.2
	250	2	12.6	12.6	7.2
	251	2	10.8	12.6	9.0
	252	2	12.6	10.8	9.0
	253	1	10.8	10.8	10.8
	254	2	12.6	12.6	10.8
	255	2	10.8	12.6	12.6
	256	2	12.6	10.8	12.6

Velocities

	1	0.0	0.0	0.0
	2	0.0	0.0	0.0
	3	0.0	0.0	0.0
	4	0.0	0.0	0.0
	5	0.0	0.0	0.0
	6	0.0	0.0	0.0
	7	0.0	0.0	0.0
	8	0.0	0.0	0.0
	9	0.0	0.0	0.0
	10	0.0	0.0	0.0
	11	0.0	0.0	0.0
	12	0.0	0.0	0.0
	13	0.0	0.0	0.0
	14	0.0	0.0	0.0
	15	0.0	0.0	0.0
	16	0.0	0.0	0.0
	17	0.0	0.0	0.0
	18	0.0	0.0	0.0
	19	0.0	0.0	0.0
	20	0.0	0.0	0.0
	21	0.0	0.0	0.0
	22	0.0	0.0	0.0
	23	0.0	0.0	0.0
	24	0.0	0.0	0.0
	25	0.0	0.0	0.0
	26	0.0	0.0	0.0
	27	0.0	0.0	0.0
	28	0.0	0.0	0.0
	29	0.0	0.0	0.0
	30	0.0	0.0	0.0
	31	0.0	0.0	0.0
	32	0.0	0.0	0.0
	33	0.0	0.0	0.0
	34	0.0	0.0	0.0
	35	0.0	0.0	0.0
	36	0.0	0.0	0.0
	37	0.0	0.0	0.0
	38	0.0	0.0	0.0
	39	0.0	0.0	0.0
	40	0.0	0.0	0.0
	41	0.0	0.0	0.0
	42	0.0	0.0	0.0
	43	0.0	0.0	0.0
	44	0.0	0.0	0.0
	45	0.0	0.0	0.0
	46	0.0	0.0	0.0
	47	0.0	0.0	0.0
	48	0.0	0.0	0.0
	49	0.0	0.0	0.0
	50	0.0	0.0	0.0
	51	0.0	0.0	0.0
	52	0.0	0.0	0.0
	53	0.0	0.0	0.0
	54	0.0	0.0	0.0
	55	0.0	0.0	0.0
	56	0.0	0.0	0.0
	57	0.0	0.0	0.0
	58	0.0	0.0	0.0
	59	0.0	0.0	0.0
	60	0.0	0.0	0.0
	61	0.0	0.0	0.0
	62	0.0	0.0	0.0
	63	0.0	0.0	0.0
	64	0.0	0.0	0.0
	65	0.0	0.0	0.0
	66	0.0	0.0	0.0
	67	0.0	0.0	0.0
	68	0.0	0.0	0.0
	69	0.0	0.0	0.0
	70	0.0	0.0	0.0
	71	0.0	0.0	0.0
	72	0.0	0.0	0.0
	73	0.0	0.0	0.0
	74	0.0	0.0	0.0
	75	0.0	0.0	0.0
	76	0.0	0.0	0.0
	77	0.0	0.0	0.0
	78	0.0	0.0	0.0
	79	0.0	0.0	0.0
	80	0.0	0.0	0.0
	81	0.0	0.0	0.0
	82	0.0	0.0	0.0
	83	0.0	0.0	0.0
	84	0.0	0.0	0.0
	85	0.0	0.0	0.0
	86	0.0	0.0	0.0
	87	0.0	0.0	0.0
	88	0.0	0.0	0.0
	89	0.0	0.0	0.0
	90	0.0	0.0	0.0
	91	0.0	0.0	0.0
	92	0.0	0.0	0.0
	93	0.0	0.0	0.0
	94	0.0	0.0	0.0
	95	0.0	0.0	0.0
	96	0.0	0.0	0.0
	97	0.0	0.0	0.0
	98	0.0	0.0	0.0
	99	0.0	0.0	0.0
	100	0.0	0.0	0.0
	101	0.0	0.0	0.0
	102	0.0	0.0	0.0
	103	0.0	0.0	0.0
	104	0.0	0.0	0.0
	105	0.0	0.0	0.0
	106	0.0	0.0	0.0
	107	0.0	0.0	0.0
	108	0.0	0.0	0.0
	109	0.0	0.0	0.0
	110	0.0	0.0	0.0
	111	0.0	0.0	0.0
	112	0.0	0.0	0.0
	113	0.0	0.0	0.0
	114	0.0	0.0	0.0
	115	0.0	0.0	0.0
	116	0.0	0.0	0.0
	117	0.0	0.0	0.0
	118	0.0	0.0	0.0
	119	0.0	0.0	0.0
	120	0.0	0.0	0.0
	121	0.0	0.0	0.0
	122	0.0	0.0	0.0
	123	0.0	0.0	0.0
	124	0.0	0.0	0.0
	125	0.0	0.0	0.0
	126	0.0	0.0	0.0
	127	0.0	0.0	0.0
	128	0.0	0.0	0.0
	129	0.0	0.0	0.0
	130	0.0	0.0	0.0
	131	0.0	0.0	0.0
	132	0.0	0.0	0.0
	133	0.0	0.0	0.0
	134	0.0	0.0	0.0
	135	0.0	0.0	0.0
	136	0.0	0.0	0.0
	137	0.0	0.0	0.0
	138	0.0	0.0	0.0
	139	0.0	0.0	0.0
	140	0.0	0.0	0.0
	141	0.0	0.0	0.0
	142	0.0	0.0	0.0
	143	0.0	0.0	0.0
	144	0.0	0.0	0.0
	145	0.0	0.0	0.0
	146	0.0	0.0	0.0
	147	0.0	0.0	0.0
	148	0.0	0.0	0.0
	149	0.0	0.0	0.0
	150	0.0	0.0	0.0
	151	0.0	0.0	0.0
	152	0.0	0.0	0.0
	153	0.0	0.0	0.0
	154	0.0	0.0	0.0
	155	0.0	0.0	0.0
	156	0.0	0.0	0.0
	157	0.0	0.0	0.0
	158	0.0	0.0	0.0
	159	0.0	0.0	0.0
	160	0.0	0.0	0.0
	161	0.0	0.0	0.0
	162	0.0	0.0	0.0
	163	0.0	0.0	0.0
	164	0.0	0.0	0.0
	165	0.0	0.0	0.0
	166	0.0	0.0	0.0
	167	0.0	0.0	0.0
	168	0.0	0.0	0.0
	169	0.0	0.0	0.0
	170	0.0	0.0	0.0
	171	0.0	0.0	0.0
	172	0.0	0.0	0.0
	173	0.0	0.0	0.0
	174	0.0	0.0	0.0
	175	0.0	0.0	0.0
	176	0.0	0.0	0.0
	177	0.0	0.0	0.0
	178	0.0	0.0	0.0
	179	0.0	0.0	0.0
	180	0.0	0.0	0.0
	181	0.0	0.0	0.0
	182	0.0	0.0	0.0
	183	0.0	0.0	0.0
	184	0.0	0.0	0.0
	185	0.0	0.0	0.0
	186	0.0	0.0	0.0
	187	0.0	0.0	0.0
	188	0.0	0.0	0.0
	189	0.0	0.0	0.0
	190	0.0	0.0	0.0
	191	0.0	0.0	0.0
	192	0.0	0.0	0.0
	193	0.0	0.0	0.0
	194	0.0	0.0	0.0
	195	0.0	0.0	0.0
	196	0.0	0.0	0.0
	197	0.0	0.0	0.0
	198	0.0	0.0	0.0
	199	0.0	0.0	0.0
	200	0.0	0.0	0.0
	201	0.0	0.0	0.0
	202	0.0	0.0	0.0
	203	0.0	0.0	0.0
	204	0.0	0.0	0.0
	205	0.0	0.0	0.0
	206	0.0	0.0	0.0
	207	0.0	0.0	0.0
	208	0.0	0.0	0.0
	209	0.0	0.0	0.0
	210	0.0	0.0	0.0
	211	0.0	0.0	0.0
	212	0.0	0.0	0.0
	213	0.0	0.0	0.0
	214	0.0	0.0	0.0
	215	0.0	0.0	0.0
	216	0.0	0.0	0.0
	217	0.0	0.0	0.0
	218	0.0	0.0	0.0
	219	0.0	0.0	0.0
	220	0.0	0.0	0.0
	221	0.0	0.0	0.0
	222	0.0	0.0	0.0
	223	0.0	0.0	0.0
	224	0.0	0.0	0.0
	225	0.0	0.0	0.0
	226	0.0	0.0	0.0
	227	0.0	0.0	0.0
	228	0.0	0.0	0.0
	229	0.0	0.0	0.0
	230	0.0	0.0	0.0
	231	0.0	0.0	0.0
	232	0.0	0.0	0.0
	233	0.0	0.0	0.0
	234	0.0	0.0	0.0
	235	0.0	0.0	0.0
	236	0.0	0.0	0.0
	237	0.0	0.0	0.0
	238	0.0	0.0	0.0
	239	0.0	0.0	0.0
	240	0.0	0.0	0.0
	241	0.0	0.0	0.0
	242	0.0	0.0	0.0
	243	0.0	0.0	0.0
	244	0.0	0.0	0.0
	245	0.0	0.0	0.0
	246	0.0	0.0	0.0
	247	0.0	0.0	0.0
	248	0.0	0.0	0.0
	249	0.0	0.0	0.0
	250	0.0	0.0	0.0
	251	0.0	0.0	0.0
	252	0.0	0.0	0.0
	253	0.0	0.0	0.0
	254	0.0	0.0	0.0
	255	0.0	0.0	0.0
	256	-0.0	-0.0	-0.0

