LAMMPS (8 Feb 2019)
OMP_NUM_THREADS environment is not set. Defaulting to 1 thread. (src/comm.cpp:87)
  using 1 OpenMP thread(s) per MPI task
# First try at a a lammps sim

# ----------------- Initializating the configuration --------------------------

clear
OMP_NUM_THREADS environment is not set. Defaulting to 1 thread. (src/comm.cpp:87)
  using 1 OpenMP thread(s) per MPI task
units metal
dimension 3
boundary p p p
atom_style atomic
#atom_modify


# --------------------- Create Atom-----------------------
read_data	data.Cu-Ni
  orthogonal box = (-0.02 -0.02 -0.02) to (41.42 41.42 41.42)
  1 by 1 by 1 MPI processor grid
  reading atoms ...
  3430 atoms
  reading velocities ...
  3430 velocities

# ------------ Define Interatomic Potential ----------------

pair_style eam/alloy
pair_coeff * * CuNi.eam.alloy Ni Cu
Reading potential file CuNi.eam.alloy with DATE: 2014-07-11
neighbor .05 bin
neigh_modify delay 10 check yes


# ------------- Define Settings ----------------

compute pepa all pe/atom

# ------------------ Run Minimization -----------

reset_timestep 0
thermo 500
thermo_style    custom step temp pe ke etotal press lx ly lz
timestep .0001

dump           	1 all custom 500 dump.atom id type x y z c_pepa
fix 		1 all nvt temp 2000.0 2000.0 1.0
run 		100000
Neighbor list info ...
  update every 1 steps, delay 10 steps, check yes
  max neighbors/atom: 2000, page size: 100000
  master list distance cutoff = 6.44433
  ghost atom cutoff = 6.44433
  binsize = 3.22217, bins = 13 13 13
  1 neighbor lists, perpetual/occasional/extra = 1 0 0
  (1) pair eam/alloy, perpetual
      attributes: half, newton on
      pair build: half/bin/atomonly/newton
      stencil: half/bin/3d/newton
      bin: standard
Per MPI rank memory allocation (min/avg/max) = 4.862 | 4.862 | 4.862 Mbytes
Step Temp PotEng KinEng TotEng Press Lx Ly Lz 
       0    858.21016    218359.71     380.3871     218740.1   -455.29193        41.44        41.44        41.44 
     500    397128.04    10765.307    176020.27    186785.57    3154932.5        41.44        41.44        41.44 
    1000    319913.02    8585.4612    141796.02    150381.48    2649019.3        41.44        41.44        41.44 
    1500    254286.04    7865.9835    112707.97    120573.96    2160603.1        41.44        41.44        41.44 
    2000    210506.75     3446.316    93303.546    96749.862    1819738.4        41.44        41.44        41.44 
    2500    173284.17    866.52699    76805.271    77671.798    1477576.5        41.44        41.44        41.44 
    3000    141050.65    222.17446    62518.308    62740.482    1237697.6        41.44        41.44        41.44 
    3500    115892.51   -310.96136    51367.389    51056.428    1060143.6        41.44        41.44        41.44 
    4000    97333.912   -1258.7991    43141.606    41882.807    913802.85        41.44        41.44        41.44 
    4500    83429.851   -2475.8139    36978.866    34503.052     782029.4        41.44        41.44        41.44 
    5000    71615.777    -3278.588    31742.478     28463.89    674221.17        41.44        41.44        41.44 
    5500    61596.527   -3801.4844    27301.616    23500.131    582258.48        41.44        41.44        41.44 
    6000    53624.493   -4377.7394    23768.147    19390.408    508514.19        41.44        41.44        41.44 
    6500    46707.525    -4756.158    20702.318     15946.16    441504.22        41.44        41.44        41.44 
    7000    41191.098   -5186.4226    18257.256    13070.833    384864.66        41.44        41.44        41.44 
    7500    36333.888   -5476.0145    16104.379    10628.365    341123.21        41.44        41.44        41.44 
    8000    31707.023   -5481.8469      14053.6    8571.7533    312356.18        41.44        41.44        41.44 
    8500    29104.983   -6093.2452     12900.29    6807.0447    265020.54        41.44        41.44        41.44 
    9000    25709.988   -6121.3068    11395.516    5274.2093    239142.78        41.44        41.44        41.44 
    9500     23534.03    -6488.949     10431.06    3942.1106     202937.4        41.44        41.44        41.44 
   10000    21180.151   -6608.2767    9387.7427     2779.466    179418.28        41.44        41.44        41.44 
   10500    19267.398   -6786.0093    8539.9471    1753.9378    156387.94        41.44        41.44        41.44 
   11000    17462.985   -6885.1676    7740.1719    855.00434    138486.83        41.44        41.44        41.44 
   11500    16019.368   -7042.0083    7100.3132     58.30495    117904.96        41.44        41.44        41.44 
   12000    14657.333   -7146.5735    6496.6143   -649.95919    103477.38        41.44        41.44        41.44 
   12500    13713.025   -7357.1874    6078.0657   -1279.1217    82784.532        41.44        41.44        41.44 
   13000    12382.724   -7329.9259    5488.4322   -1841.4937    75298.512        41.44        41.44        41.44 
   13500    11399.392   -7398.7653    5052.5872    -2346.178    64887.003        41.44        41.44        41.44 
   14000    10720.182    -7551.359    4751.5389   -2799.8201    51754.055        41.44        41.44        41.44 
   14500    9854.6289   -7575.4679    4367.8971   -3207.5707    42488.539        41.44        41.44        41.44 
   15000    9283.8535   -7692.4722    4114.9106   -3577.5616    32780.982        41.44        41.44        41.44 
   15500    8682.9363   -7761.4017    3848.5642   -3912.8374     23765.48        41.44        41.44        41.44 
   16000    8086.5136   -7803.9215      3584.21   -4219.7115    15322.825        41.44        41.44        41.44 
   16500    7673.0087   -7899.1167    3400.9309   -4498.1858    6982.8266        41.44        41.44        41.44 
   17000    7086.5005   -7893.5161    3140.9711    -4752.545    4070.4446        41.44        41.44        41.44 
   17500     6713.758    -7961.192    2975.7594   -4985.4326   -2609.7905        41.44        41.44        41.44 
   18000    6302.5006   -7992.7115    2793.4765    -5199.235   -6758.7882        41.44        41.44        41.44 
   18500     6014.284   -8062.9333    2665.7294    -5397.204   -16140.046        41.44        41.44        41.44 
   19000    5671.2344   -8093.8332    2513.6784   -5580.1547   -21225.582        41.44        41.44        41.44 
   19500     5347.084   -8118.7354    2370.0043   -5748.7311   -24933.606        41.44        41.44        41.44 
   20000    5111.4435   -8171.2138    2265.5606   -5905.6532   -28647.989        41.44        41.44        41.44 
   20500    4843.6007   -8197.1204    2146.8439   -6050.2766   -31482.557        41.44        41.44        41.44 
   21000    4671.8393   -8256.0544    2070.7135   -6185.3409   -37233.926        41.44        41.44        41.44 
   21500    4425.8306   -8273.3328    1961.6744   -6311.6585   -38926.671        41.44        41.44        41.44 
   22000    4292.3458   -8331.3569    1902.5094   -6428.8474   -44871.595        41.44        41.44        41.44 
   22500    4008.0253   -8315.2921    1776.4892   -6538.8029   -44812.602        41.44        41.44        41.44 
   23000    3868.8381   -8355.7146    1714.7968   -6640.9177   -47446.401        41.44        41.44        41.44 
   23500    3707.6258   -8379.1507    1643.3422   -6735.8085   -50500.493        41.44        41.44        41.44 
   24000    3619.7797   -8429.6353    1604.4059   -6825.2293   -54104.834        41.44        41.44        41.44 
   24500    3431.7133   -8430.7532    1521.0487   -6909.7045   -53265.462        41.44        41.44        41.44 
   25000    3319.0003   -8459.8545    1471.0906   -6988.7639    -54611.67        41.44        41.44        41.44 
   25500    3262.7509   -8510.2939     1446.159   -7064.1349   -56780.898        41.44        41.44        41.44 
   26000      3192.53   -8550.5021    1415.0348   -7135.4674   -56489.352        41.44        41.44        41.44 
   26500    3109.5534   -8582.1949    1378.2568    -7203.938   -57675.259        41.44        41.44        41.44 
   27000     3037.716   -8616.4953    1346.4161   -7270.0792   -57779.756        41.44        41.44        41.44 
   27500    2996.5236   -8660.7757    1328.1583   -7332.6174   -58733.564        41.44        41.44        41.44 
   28000    2917.2963   -8686.3005    1293.0421   -7393.2584    -57866.27        41.44        41.44        41.44 
   28500    2859.0904   -8718.9701    1267.2433   -7451.7268   -55302.616        41.44        41.44        41.44 
   29000    2832.9541   -8764.0749    1255.6588   -7508.4161   -54580.273        41.44        41.44        41.44 
   29500     2756.286   -8784.1012     1221.677   -7562.4242   -56086.248        41.44        41.44        41.44 
   30000    2744.4754   -8832.1187    1216.4422   -7615.6766   -56987.815        41.44        41.44        41.44 
   30500    2751.8454   -8886.8602    1219.7088   -7667.1514   -55475.568        41.44        41.44        41.44 
   31000    2718.9669   -8922.6144     1205.136   -7717.4784   -52721.185        41.44        41.44        41.44 
   31500     2733.463   -8978.8752    1211.5611   -7767.3141   -52547.098        41.44        41.44        41.44 
   32000    2677.8735   -9003.7086     1186.922   -7816.7866   -50892.694        41.44        41.44        41.44 
   32500    2679.4267   -9052.3862    1187.6104   -7864.7758   -49432.716        41.44        41.44        41.44 
   33000    2690.2534   -9105.0774    1192.4092   -7912.6682   -47262.346        41.44        41.44        41.44 
   33500    2713.1111    -9163.339    1202.5405   -7960.7985    -44018.21        41.44        41.44        41.44 
   34000    2687.6304   -9199.1277    1191.2466   -8007.8811    -38649.06        41.44        41.44        41.44 
   34500     2732.463   -9266.1792    1211.1179   -8055.0613   -37135.112        41.44        41.44        41.44 
   35000    2696.6104   -9297.5961    1195.2268   -8102.3693   -33547.231        41.44        41.44        41.44 
   35500    2676.6165   -9335.5588    1186.3649   -8149.1939   -30699.626        41.44        41.44        41.44 
   36000    2692.0085   -9388.4172    1193.1871     -8195.23   -27638.306        41.44        41.44        41.44 
   36500    2683.5939   -9430.7798    1189.4575   -8241.3224   -24236.621        41.44        41.44        41.44 
   37000    2659.7568   -9465.6993    1178.8921   -8286.8072   -22841.514        41.44        41.44        41.44 
   37500    2620.1404   -9493.1587    1161.3328   -8331.8259    -21117.42        41.44        41.44        41.44 
   38000    2583.1956   -9520.9238    1144.9576   -8375.9661   -20120.325        41.44        41.44        41.44 
   38500    2554.0634   -9551.0757    1132.0453   -8419.0304   -20025.201        41.44        41.44        41.44 
   39000    2537.3617   -9585.6218    1124.6425   -8460.9793   -19734.542        41.44        41.44        41.44 
   39500    2508.4047   -9614.2897    1111.8078   -8502.4819    -19452.11        41.44        41.44        41.44 
   40000    2524.7701   -9662.4636    1119.0615   -8543.4021     -20172.8        41.44        41.44        41.44 
   40500    2458.9636   -9673.9319    1089.8939    -8584.038   -19306.376        41.44        41.44        41.44 
   41000    2457.4363   -9712.5217    1089.2169   -8623.3048   -20885.148        41.44        41.44        41.44 
   41500     2407.698   -9728.7289    1067.1713   -8661.5576   -20817.559        41.44        41.44        41.44 
   42000    2379.8889    -9753.706    1054.8454   -8698.8606   -21693.957        41.44        41.44        41.44 
   42500    2311.3662   -9759.3643    1024.4739   -8734.8904   -21118.395        41.44        41.44        41.44 
   43000     2301.799   -9790.4184    1020.2334   -8770.1851   -21885.838        41.44        41.44        41.44 
   43500    2256.7996   -9804.5299    1000.2882   -8804.2418   -21792.148        41.44        41.44        41.44 
   44000    2247.3687   -9833.1546    996.10808   -8837.0465    -23533.59        41.44        41.44        41.44 
   44500    2170.6277   -9831.1385     962.0939   -8869.0447   -22564.037        41.44        41.44        41.44 
   45000     2195.768   -9873.3564    973.23693   -8900.1194   -24455.064        41.44        41.44        41.44 
   45500    2191.5384   -9902.0114    971.36221   -8930.6492   -24379.827        41.44        41.44        41.44 
   46000    2156.7358   -9915.8433    955.93656   -8959.9067   -23297.801        41.44        41.44        41.44 
   46500    2099.6078   -9919.0353    930.61556   -8988.4198   -21310.243        41.44        41.44        41.44 
   47000    2114.6279   -9953.7221    937.27293   -9016.4492   -22220.948        41.44        41.44        41.44 
   47500    2092.3884   -9970.8671    927.41568   -9043.4514   -21183.259        41.44        41.44        41.44 
   48000     2043.302   -9975.2528    905.65896   -9069.5939    -18984.56        41.44        41.44        41.44 
   48500    2059.9184   -10007.953    913.02389   -9094.9294   -19262.829        41.44        41.44        41.44 
   49000     2022.638   -10016.252    896.49998    -9119.752   -19188.925        41.44        41.44        41.44 
   49500    2009.8144   -10034.313    890.81616   -9143.4969   -19681.136        41.44        41.44        41.44 
   50000    1981.1398   -10044.937    878.10661   -9166.8304   -19550.482        41.44        41.44        41.44 
   50500    1963.8638   -10059.785    870.44934   -9189.3353   -19406.389        41.44        41.44        41.44 
   51000     1940.504    -10071.04    860.09547    -9210.945   -19549.107        41.44        41.44        41.44 
   51500    1918.3128   -10082.086    850.25962   -9231.8261   -19421.169        41.44        41.44        41.44 
   52000    1893.6454   -10091.377    839.32622   -9252.0511   -18677.112        41.44        41.44        41.44 
   52500    1856.2205   -10094.058    822.73825   -9271.3198    -17270.42        41.44        41.44        41.44 
   53000    1869.2435   -10118.216    828.51047   -9289.7059   -18809.557        41.44        41.44        41.44 
   53500    1836.5978   -10121.609    814.04082   -9307.5686   -18236.782        41.44        41.44        41.44 
   54000    1836.1056   -10138.373    813.82266   -9324.5502   -19223.803        41.44        41.44        41.44 
   54500    1859.6443    -10165.44    824.25579   -9341.1847   -19420.348        41.44        41.44        41.44 
   55000    1844.7263   -10174.747    817.64364   -9357.1033   -18828.921        41.44        41.44        41.44 
   55500     1805.681   -10172.765    800.33747   -9372.4272   -17806.775        41.44        41.44        41.44 
   56000    1791.8452   -10181.222    794.20501   -9387.0167   -17859.291        41.44        41.44        41.44 
   56500    1777.7139   -10188.793    787.94151   -9400.8513   -17755.118        41.44        41.44        41.44 
   57000    1757.7848   -10193.204    779.10828   -9414.0961   -18818.719        41.44        41.44        41.44 
   57500    1746.9385   -10200.973    774.30086    -9426.672   -19642.428        41.44        41.44        41.44 
   58000    1767.4635   -10222.007    783.39823   -9438.6086   -20013.463        41.44        41.44        41.44 
   58500    1730.5065   -10216.922    767.01767   -9449.9044   -18496.868        41.44        41.44        41.44 
   59000    1731.4987   -10227.989    767.45741   -9460.5315   -18459.874        41.44        41.44        41.44 
   59500    1736.2943   -10240.184      769.583   -9470.6013   -18578.871        41.44        41.44        41.44 
   60000    1720.8411   -10242.809    762.73363   -9480.0752   -17338.798        41.44        41.44        41.44 
   60500    1715.9222   -10249.448    760.55341   -9488.8941   -16678.499        41.44        41.44        41.44 
   61000    1728.8507   -10263.537    766.28375   -9497.2531   -16933.748        41.44        41.44        41.44 
   61500    1710.8722   -10263.323    758.31507   -9505.0083   -15946.194        41.44        41.44        41.44 
   62000     1676.532   -10255.192    743.09437   -9512.0974    -15123.99        41.44        41.44        41.44 
   62500    1703.8678   -10273.873     755.2105   -9518.6622   -16234.931        41.44        41.44        41.44 
   63000     1652.055    -10256.74    732.24536   -9524.4948   -16047.496        41.44        41.44        41.44 
   63500    1671.2088   -10270.427    740.73496   -9529.6918   -16393.921        41.44        41.44        41.44 
   64000    1660.1574   -10270.125    735.83662   -9534.2879   -16089.307        41.44        41.44        41.44 
   64500    1650.8789   -10270.004    731.72408   -9538.2802   -16492.866        41.44        41.44        41.44 
   65000    1671.0527   -10282.261    740.66575   -9541.5951    -17156.05        41.44        41.44        41.44 
   65500      1688.33   -10292.673    748.32363   -9544.3489   -17065.417        41.44        41.44        41.44 
   66000    1631.4516   -10269.586    723.11323   -9546.4729   -14625.838        41.44        41.44        41.44 
   66500    1672.5773   -10289.259     741.3415   -9547.9178   -15844.099        41.44        41.44        41.44 
   67000    1648.6635    -10279.49    730.74211   -9548.7478   -15340.349        41.44        41.44        41.44 
   67500    1673.1667   -10290.551    741.60275   -9548.9485   -16468.757        41.44        41.44        41.44 
   68000     1691.339   -10298.208    749.65734   -9548.5506   -16937.342        41.44        41.44        41.44 
   68500    1689.5673    -10296.45    748.87206   -9547.5778   -16227.593        41.44        41.44        41.44 
   69000    1657.3935   -10280.639    734.61154   -9546.0275   -14984.788        41.44        41.44        41.44 
   69500    1697.5843   -10296.274    752.42546   -9543.8488   -16829.981        41.44        41.44        41.44 
   70000    1662.8604   -10278.125    737.03466   -9541.0905   -16256.218        41.44        41.44        41.44 
   70500    1695.2984   -10289.138    751.41228   -9537.7259   -16307.325        41.44        41.44        41.44 
   71000    1683.8381   -10280.107    746.33269   -9533.7743   -15463.377        41.44        41.44        41.44 
   71500    1689.0749   -10277.885    748.65381    -9529.231   -14898.826        41.44        41.44        41.44 
   72000    1735.8699   -10293.477    769.39488   -9524.0826   -16686.268        41.44        41.44        41.44 
   72500    1731.7268    -10285.95    767.55853   -9518.3913   -16414.441        41.44        41.44        41.44 
   73000    1743.2475   -10284.827    772.66487   -9512.1617   -15759.376        41.44        41.44        41.44 
   73500    1730.2567   -10272.387    766.90695   -9505.4798   -14763.702        41.44        41.44        41.44 
   74000    1752.9311   -10275.224    776.95698   -9498.2665   -14194.321        41.44        41.44        41.44 
   74500    1783.8187   -10281.098    790.64737   -9490.4505   -13866.586        41.44        41.44        41.44 
   75000    1795.5604   -10278.022    795.85169   -9482.1701   -14611.736        41.44        41.44        41.44 
   75500    1791.9501     -10267.7    794.25149    -9473.448   -14435.095        41.44        41.44        41.44 
   76000    1787.1903   -10256.456    792.14181   -9464.3143   -13925.628        41.44        41.44        41.44 
   76500    1795.1558   -10250.472    795.67238   -9454.8001   -13827.627        41.44        41.44        41.44 
   77000    1817.8456    -10250.53    805.72922   -9444.8007   -15486.022        41.44        41.44        41.44 
   77500    1804.7577   -10234.404    799.92825   -9434.4759   -16115.618        41.44        41.44        41.44 
   78000    1824.2398   -10232.487    808.56336    -9423.924   -17275.203        41.44        41.44        41.44 
   78500    1802.1542   -10211.794    798.77427   -9413.0199     -15205.9        41.44        41.44        41.44 
   79000    1832.6536   -10213.953    812.29261   -9401.6608   -14588.756        41.44        41.44        41.44 
   79500     1840.558   -10205.669    815.79613   -9389.8727   -14285.458        41.44        41.44        41.44 
   80000    1874.7146   -10208.814    830.93542   -9377.8788   -15450.415        41.44        41.44        41.44 
   80500    1874.5452   -10196.338    830.86037    -9365.478    -16046.15        41.44        41.44        41.44 
   81000    1888.3225   -10189.987    836.96692   -9353.0198   -16221.651        41.44        41.44        41.44 
   81500    1895.2519   -10180.343    840.03828   -9340.3051   -15888.654        41.44        41.44        41.44 
   82000    1901.9154   -10170.391    842.99175   -9327.3991   -17089.634        41.44        41.44        41.44 
   82500    1963.6743   -10184.576    870.36533   -9314.2111   -19285.661        41.44        41.44        41.44 
   83000    1950.2334   -10165.319    864.40788   -9300.9113   -18475.008        41.44        41.44        41.44 
   83500    1968.1293   -10159.799    872.33994   -9287.4588   -18326.513        41.44        41.44        41.44 
   84000    1968.1647   -10146.333    872.35562   -9273.9769   -17465.295        41.44        41.44        41.44 
   84500    1999.5241   -10146.862    886.25516   -9260.6068   -17445.979        41.44        41.44        41.44 
   85000    2006.6862   -10136.532    889.42964   -9247.1019   -16863.418        41.44        41.44        41.44 
   85500    1993.9651    -10117.51    883.79119   -9233.7186    -15454.97        41.44        41.44        41.44 
   86000    2061.9669   -10134.213    913.93184   -9220.2807   -16647.797        41.44        41.44        41.44 
   86500    2016.0816   -10100.397    893.59397   -9206.8035   -15086.208        41.44        41.44        41.44 
   87000    2076.9839   -10114.135    920.58787   -9193.5469   -16384.916        41.44        41.44        41.44 
   87500    2036.0191   -10082.783    902.43094   -9180.3525   -15450.283        41.44        41.44        41.44 
   88000    2043.9708   -10073.503    905.95537   -9167.5473   -14798.945        41.44        41.44        41.44 
   88500    2077.1595   -10075.466     920.6657   -9154.8001   -14445.351        41.44        41.44        41.44 
   89000    2120.9467   -10082.298    940.07364   -9142.2243   -14931.187        41.44        41.44        41.44 
   89500    2125.6866   -10071.828    942.17451   -9129.6534   -14312.177        41.44        41.44        41.44 
   90000    2132.0744   -10062.406    945.00583   -9117.4004   -14895.019        41.44        41.44        41.44 
   90500    2150.6188   -10058.742    953.22531   -9105.5165   -16192.792        41.44        41.44        41.44 
   91000    2164.4738    -10053.36    959.36629   -9093.9937   -16770.367        41.44        41.44        41.44 
   91500    2171.9265   -10045.396    962.66957   -9082.7261   -16160.223        41.44        41.44        41.44 
   92000    2159.8171   -10029.333    957.30228   -9072.0303   -14980.741        41.44        41.44        41.44 
   92500    2198.6023   -10036.179    974.49316   -9061.6861   -14818.745        41.44        41.44        41.44 
   93000    2178.6995   -10017.443    965.67161   -9051.7717   -13008.817        41.44        41.44        41.44 
   93500    2218.4561   -10025.645    983.29302   -9042.3516   -13158.269        41.44        41.44        41.44 
   94000    2205.2293   -10010.812     977.4305   -9033.3817   -13821.757        41.44        41.44        41.44 
   94500    2269.0987   -10030.701    1005.7395   -9024.9613   -14797.944        41.44        41.44        41.44 
   95000    2209.1301   -9996.3018    979.15942   -9017.1423   -13066.491        41.44        41.44        41.44 
   95500    2245.8111   -10005.301    995.41769   -9009.8831   -13870.231        41.44        41.44        41.44 
   96000    2242.1889   -9997.0293    993.81218   -9003.2172   -13619.009        41.44        41.44        41.44 
   96500    2284.4677   -10009.732    1012.5515   -8997.1806   -14874.925        41.44        41.44        41.44 
   97000    2265.7202    -9995.979    1004.2421   -8991.7369   -13781.621        41.44        41.44        41.44 
   97500     2294.235   -10003.912    1016.8807   -8987.0308   -15090.562        41.44        41.44        41.44 
   98000    2294.7326   -10000.041    1017.1013   -8982.9399   -15076.652        41.44        41.44        41.44 
   98500    2295.1231   -9996.8608    1017.2744   -8979.5864   -16217.501        41.44        41.44        41.44 
   99000     2271.592   -9983.7855    1006.8446   -8976.9409   -16522.337        41.44        41.44        41.44 
   99500    2297.8831   -9993.5163    1018.4977   -8975.0186   -17552.978        41.44        41.44        41.44 
  100000    2244.5013   -9968.6649    994.83714   -8973.8277   -16838.185        41.44        41.44        41.44 
Loop time of 472.668 on 1 procs for 100000 steps with 3430 atoms

Performance: 1.828 ns/day, 13.130 hours/ns, 211.565 timesteps/s
100.0% CPU use with 1 MPI tasks x 1 OpenMP threads

MPI task timing breakdown:
Section |  min time  |  avg time  |  max time  |%varavg| %total
---------------------------------------------------------------
Pair    | 431.86     | 431.86     | 431.86     |   0.0 | 91.37
Neigh   | 33.011     | 33.011     | 33.011     |   0.0 |  6.98
Comm    | 1.9644     | 1.9644     | 1.9644     |   0.0 |  0.42
Output  | 1.0816     | 1.0816     | 1.0816     |   0.0 |  0.23
Modify  | 4.0055     | 4.0055     | 4.0055     |   0.0 |  0.85
Other   |            | 0.7427     |            |       |  0.16

Nlocal:    3430 ave 3430 max 3430 min
Histogram: 1 0 0 0 0 0 0 0 0 0
Nghost:    3219 ave 3219 max 3219 min
Histogram: 1 0 0 0 0 0 0 0 0 0
Neighs:    115859 ave 115859 max 115859 min
Histogram: 1 0 0 0 0 0 0 0 0 0

Total # of neighbors = 115859
Ave neighs/atom = 33.7781
Neighbor list builds = 9163
Dangerous builds = 4505

unfix 		1

compute 	MSD all msd com yes
thermo 		500
thermo_style 	custom step temp pe etotal press lx ly lz c_MSD[4]

fix 		2 all npt temp 2000.0 2000.0 1.0 iso 0.0 0.0 1.0

run 		1000000
Per MPI rank memory allocation (min/avg/max) = 5.626 | 5.626 | 5.626 Mbytes
Step Temp PotEng TotEng Press Lx Ly Lz c_MSD[4] 
  100000    2244.5013   -9968.6649   -8973.8277   -16838.185        41.44        41.44        41.44 1.6332208e-27 
  100500    2252.2054   -9975.6733   -8977.4215    -14241.86    41.375426    41.375426    41.375426   0.19043928 
  101000    2302.1163   -10005.059   -8984.6853   -8782.2539    41.207705    41.207705    41.207705   0.56519644 
  101500      2380.88   -10045.547   -8990.2621   -3215.1122    41.012306    41.012306    41.012306   0.97674149 
  102000    2418.3731   -10065.587   -8993.6841    919.22148     40.86196     40.86196     40.86196    1.4082837 
  102500    2381.2684   -10052.446   -8996.9892    4145.8835    40.771578    40.771578    40.771578    1.8420254 
  103000    2413.3782   -10070.888   -9001.1995    862.68545    40.730157    40.730157    40.730157    2.2356568 
  103500     2369.848   -10056.858   -9006.4635   -1431.5795    40.705706    40.705706    40.705706    2.6211088 
  104000    2374.8748   -10064.745   -9012.1217   -4919.7327    40.673656    40.673656    40.673656    3.0211285 
  104500    2339.5196    -10055.21    -9018.258    -5596.894     40.61407     40.61407     40.61407     3.459275 
  105000    2360.4095   -10070.956   -9024.7449   -6342.5846    40.523261    40.523261    40.523261    3.9328657 
  105500    2362.6318   -10078.677   -9031.4809   -6094.3267    40.405846    40.405846    40.405846    4.4554609 
  106000    2364.8721   -10086.125   -9037.9352   -4028.9269    40.276461    40.276461    40.276461    5.0305099 
  106500     2415.388   -10114.081   -9043.5016   -4732.1233    40.157079    40.157079    40.157079     5.603853 
  107000    2414.7399   -10119.858   -9049.5658    -5328.415    40.048939    40.048939    40.048939    6.1769003 
  107500    2373.3973   -10107.777   -9055.8094   -3758.7431    39.945872    39.945872    39.945872    6.7910687 
  108000    2377.5994   -10115.851   -9062.0202   -5687.5089    39.850491    39.850491    39.850491    7.4002209 
  108500    2416.4009    -10140.66   -9069.6317   -9127.1521    39.749779    39.749779    39.749779    8.0637251 
  109000     2347.715   -10118.643   -9078.0583   -7255.7311    39.631649    39.631649    39.631649    8.8127305 
  109500    2396.6022   -10148.513     -9086.26    -7951.243    39.509653    39.509653    39.509653    9.5426145 
  110000     2388.688   -10153.634   -9094.8885    -7885.651    39.387266    39.387266    39.387266    10.258212 
  110500    2362.3653    -10150.26    -9103.182   -5293.5561    39.267851    39.267851    39.267851    11.022488 
  111000    2391.4889   -10170.971   -9110.9838   -5788.1119    39.159853    39.159853    39.159853    11.796777 
  111500    2401.5041   -10183.052   -9118.6263   -6120.8598    39.060534    39.060534    39.060534    12.550156 
  112000    2399.1273    -10189.91    -9126.538   -5960.3894    38.964719    38.964719    38.964719    13.285137 
  112500    2382.5571   -10190.497   -9134.4692    -5532.753    38.869986    38.869986    38.869986    14.067921 
  113000    2393.6998   -10203.429   -9142.4623   -6793.1624    38.776559    38.776559    38.776559    14.961935 
  113500    2410.9945   -10219.483   -9150.8506   -7540.1513    38.680188    38.680188    38.680188    15.870964 
  114000    2379.6615   -10214.145   -9159.4003   -6898.3061    38.579795    38.579795    38.579795    16.790374 
  114500    2386.5886   -10225.594   -9167.7786   -6578.8958    38.479806    38.479806    38.479806    17.730615 
  115000    2362.3504   -10223.066   -9175.9939   -6104.3543    38.382888    38.382888    38.382888    18.690157 
  115500    2358.5826   -10229.638   -9184.2367   -6077.4355    38.288942    38.288942    38.288942    19.614005 
  116000    2338.3646   -10228.723   -9192.2822   -4531.2848    38.197506    38.197506    38.197506    20.544823 
  116500    2366.3771   -10248.974   -9200.1172   -5529.0435    38.112396    38.112396    38.112396    21.482813 
  117000    2337.8988   -10244.032   -9207.7981   -4557.6423    38.030968    38.030968    38.030968    22.462283 
  117500    2399.5532   -10279.407   -9215.8462   -7043.0273    37.952072    37.952072    37.952072    23.438325 
  118000    2337.0947   -10260.077   -9224.1996   -4442.9648    37.867536    37.867536    37.867536    24.435586 
  118500     2421.111   -10305.498   -9232.3818   -8352.7786     37.78503     37.78503     37.78503    25.463642 
  119000    2366.6147   -10290.257   -9241.2949   -5935.8294    37.695489    37.695489    37.695489    26.498043 
  119500    2397.4267   -10312.447   -9249.8288   -5126.6601    37.606586    37.606586    37.606586    27.534611 
  120000    2365.1325   -10305.911   -9257.6064     -1715.92    37.526768    37.526768    37.526768    28.548855 
  120500    2395.2948   -10326.908   -9265.2343   -2571.5773    37.462812    37.462812    37.462812    29.625153 
  121000    2389.9965   -10332.157   -9272.8316   -2954.6526    37.408267    37.408267    37.408267    30.636677 
  121500    2375.0502   -10333.124   -9280.4236    -4594.669    37.358371    37.358371    37.358371    31.512205 
  122000     2347.988   -10329.106   -9288.4004   -3962.5756    37.303726    37.303726    37.303726    32.362664 
  122500    2350.9585   -10338.174   -9296.1517   -2012.8759    37.245557    37.245557    37.245557    33.280907 
  123000    2351.2247   -10345.594   -9303.4538   -2009.3892    37.194066    37.194066    37.194066    34.160448 
  123500    2346.1717   -10350.669   -9310.7678   -1988.8722    37.149379    37.149379    37.149379    34.979208 
  124000    2333.1951   -10352.206   -9318.0569   -3368.5853    37.108146    37.108146    37.108146    35.837418 
  124500     2366.381   -10374.585   -9325.7269    -5591.353    37.062578    37.062578    37.062578    36.718588 
  125000    2341.6623   -10371.276   -9333.3734   -3079.5524    37.007934    37.007934    37.007934    37.697797 
  125500     2349.354   -10382.177   -9340.8656   -2287.1916    36.954403    36.954403    36.954403    38.693729 
  126000    2380.1909   -10403.544   -9348.5646   -2834.2241    36.903541    36.903541    36.903541    39.715648 
  126500    2349.6099   -10397.713   -9356.2881   -691.42587     36.85386     36.85386     36.85386     40.69471 
  127000    2343.4805   -10402.381   -9363.6734    894.49154    36.812494    36.812494    36.812494     41.55528 
  127500    2372.7652   -10422.746   -9371.0584    582.14733    36.783764    36.783764    36.783764    42.337338 
  128000    2360.8476   -10424.907   -9378.5011   -21.941414    36.764744    36.764744    36.764744    43.166031 
  128500    2347.2398   -10426.338   -9385.9633   -64.375543    36.751419    36.751419    36.751419    43.941712 
  129000    2380.2938   -10448.574   -9393.5494   -2163.2617    36.739317    36.739317    36.739317    44.649584 
  129500    2322.7015   -10430.504   -9401.0064   -450.09842    36.724141    36.724141    36.724141    45.265059 
  130000    2312.1634   -10433.178   -9408.3508    228.71226    36.710933    36.710933    36.710933    45.874962 
  130500    2331.5019   -10448.993   -9415.5939    140.85467    36.702069    36.702069    36.702069    46.419748 
  131000    2301.2356   -10442.797   -9422.8131    115.50297    36.697465    36.697465    36.697465    46.832796 
  131500    2300.5331   -10449.664   -9429.9916   -1177.4828     36.69375     36.69375     36.69375    47.179154 
  132000    2291.5158   -10452.825   -9437.1496   -646.75586    36.686705    36.686705    36.686705    47.462785 
  132500    2255.5714    -10444.08   -9444.3362    1219.4147    36.676538    36.676538    36.676538     47.77121 
  133000    2249.9716   -10448.537   -9451.2751    2135.4345    36.670501    36.670501    36.670501    48.061298 
  133500    2264.7621   -10462.022   -9458.2051    179.16938    36.672348    36.672348    36.672348    48.263244 
  134000    2278.4079    -10474.95   -9465.0847   -1906.8519     36.67459     36.67459     36.67459    48.563706 
  134500    2248.6156   -10468.623   -9471.9623   -675.95053    36.670351    36.670351    36.670351    48.898169 
  135000    2221.7397    -10463.44    -9478.692     288.5357    36.663636    36.663636    36.663636     49.19167 
  135500     2258.242   -10486.231   -9485.3038   -1972.5343    36.658134    36.658134    36.658134    49.493689 
  136000    2248.3772   -10488.585   -9492.0299   -1421.1042    36.646822    36.646822    36.646822    49.899015 
  136500    2239.8478   -10491.447   -9498.6727    149.81701    36.631422    36.631422    36.631422    50.421376 
  137000    2226.8995   -10492.301   -9505.2661    1033.3755    36.618595    36.618595    36.618595    50.917082 
  137500    2217.0506    -10494.55     -9511.88    2049.8991    36.610533    36.610533    36.610533    51.419086 
  138000    2204.1861   -10495.355   -9518.3867     804.7747    36.609469    36.609469    36.609469    51.889623 
  138500    2206.3009   -10502.694   -9524.7886   -792.83505    36.612004    36.612004    36.612004    52.271079 
  139000    2203.1197   -10507.695   -9531.1994   -578.87718    36.611172    36.611172    36.611172    52.638626 
  139500    2205.2173   -10514.959   -9537.5336   -609.41841    36.607121    36.607121    36.607121    53.035064 
  140000    2213.5252   -10524.955   -9543.8474   -1813.8978    36.600618    36.600618    36.600618    53.389288 
  140500    2183.1451   -10517.763   -9550.1209   -282.35358    36.589029    36.589029    36.589029    53.667774 
  141000    2155.7929   -10511.747   -9556.2285    882.65103    36.577252    36.577252    36.577252    53.918452 
  141500    2152.0927   -10516.045   -9562.1666    1284.4958    36.570489    36.570489    36.570489    54.205512 
  142000    2146.5285   -10519.497   -9568.0849    1035.5156    36.568688    36.568688    36.568688    54.505614 
  142500    2142.7006   -10523.583   -9573.8674    518.38853    36.570692    36.570692    36.570692    54.781668 
  143000    2155.7889    -10535.21   -9579.6934   -1193.1051     36.57257     36.57257     36.57257    55.084638 
  143500    2147.4959   -10537.219   -9585.3776   -1006.0708    36.569679    36.569679    36.569679    55.377408 
  144000    2140.3737    -10539.73   -9591.0456   -604.19019    36.563542    36.563542    36.563542    55.754342 
  144500    2123.4023   -10537.837   -9596.6745    17.108905    36.554125    36.554125    36.554125    56.197389 
  145000    2130.2525   -10546.364   -9602.1658   -311.48305    36.544292    36.544292    36.544292    56.583989 
  145500    2142.3424    -10557.15    -9607.593    260.63347    36.534993    36.534993    36.534993    56.925134 
  146000    2160.4497   -10570.631   -9613.0482     149.5556    36.527905    36.527905    36.527905    57.133361 
  146500    2105.8154   -10551.805   -9618.4378    905.94215    36.523552    36.523552    36.523552    57.526081 
  147000    2108.1548   -10558.118   -9623.7146   -84.141565    36.522808    36.522808    36.522808    57.940942 
  147500    2103.6622   -10561.299   -9628.8864   -448.59058    36.522624    36.522624    36.522624    58.224939 
  148000    2116.8709    -10572.38   -9634.1124   -782.93292    36.519345    36.519345    36.519345    58.431272 
  148500    2123.4514   -10580.367   -9639.1831   -574.90066    36.513296    36.513296    36.513296    58.730112 
  149000    2069.7939   -10561.676   -9644.2752    1029.5349    36.506893    36.506893    36.506893    59.106834 
  149500    2066.2177   -10565.003   -9649.1872    1436.4733    36.503724    36.503724    36.503724    59.397675 
  150000    2085.6906   -10578.513   -9654.0658    -170.7578    36.504593    36.504593    36.504593    59.670491 
  150500    2107.3694   -10592.896   -9658.8402   -2161.3855    36.504811    36.504811    36.504811    59.965196 
  151000    2063.3888   -10578.105   -9663.5432    15.964097    36.500413    36.500413    36.500413    60.245772 
  151500    2046.7318   -10575.298   -9668.1192    785.30118    36.496185    36.496185    36.496185     60.54392 
  152000    2037.7025   -10575.727     -9672.55    708.77376    36.495191    36.495191    36.495191    60.839984 
  152500     2045.274    -10583.42    -9676.887    163.47814    36.497164    36.497164    36.497164    61.154793 
  153000    2031.2993   -10581.472   -9681.1334   -169.40729    36.499302    36.499302    36.499302    61.434102 
  153500     2033.752   -10586.715   -9685.2891    -1169.578    36.499388    36.499388    36.499388    61.731914 
  154000    2066.4277   -10605.285    -9689.376   -2712.9949    36.494124    36.494124    36.494124    61.992343 
  154500    2009.7437   -10584.282    -9693.497    767.13621    36.479397    36.479397    36.479397     62.31904 
  155000    2070.2802   -10614.993   -9697.3768   -1559.4789     36.46543     36.46543     36.46543    62.631418 
  155500    2043.1549   -10606.891   -9701.2972    773.60025    36.450347    36.450347    36.450347    62.977762 
  156000    2057.7837   -10617.238   -9705.1598    737.26506    36.438381    36.438381    36.438381    63.315109 
  156500    2016.1209   -10602.531   -9708.9193    2741.5066    36.432944    36.432944    36.432944    63.610239 
  157000    2046.5755   -10619.832   -9712.7217    994.80152    36.437533    36.437533    36.437533    63.893805 
  157500    2039.2762    -10620.33   -9716.4557   -272.48089    36.447024    36.447024    36.447024    64.247045 
  158000    2034.0273   -10621.645    -9720.097   -1937.3648    36.456319    36.456319    36.456319    64.593797 
  158500    2001.7175    -10610.85   -9723.6225   -1181.7755    36.459646    36.459646    36.459646    64.835228 
  159000    1969.7904   -10600.131   -9727.0546    16.852303    36.458168    36.458168    36.458168    65.041051 
  159500    2010.5929   -10621.504   -9730.3433   -1038.7888    36.454381    36.454381    36.454381    65.286598 
  160000    1957.4307   -10601.155   -9733.5571    795.46838    36.447565    36.447565    36.447565    65.552089 
  160500    1974.5863   -10611.818   -9736.6165     561.9707    36.441555    36.441555    36.441555    65.729734 
  161000    1985.8397   -10619.754   -9739.5647    528.73784     36.43757     36.43757     36.43757    65.947694 
  161500    1964.4299   -10613.125   -9742.4247    681.19337    36.435916    36.435916    36.435916    66.172886 
  162000    1963.9216   -10615.629   -9745.1546   -227.51354    36.435987    36.435987    36.435987    66.441674 
  162500    2004.0242   -10636.098   -9747.8485    -1527.016    36.432933    36.432933    36.432933    66.765501 
  163000    1990.2953   -10632.703   -9750.5382    -285.0337    36.422955    36.422955    36.422955    67.138123 
  163500    1966.3201   -10624.623   -9753.0847    1372.2219    36.411642    36.411642    36.411642    67.418587 
  164000    1988.0933    -10636.72   -9755.5312     871.7487     36.40558     36.40558     36.40558    67.711779 
  164500     1969.655   -10630.932   -9757.9161    1774.2782    36.405222    36.405222    36.405222    67.967971 
  165000    2013.7992   -10652.807   -9760.2247   -1062.1728    36.411767    36.411767    36.411767    68.098707 
  165500    1942.0354   -10623.252   -9762.4777    1600.9559    36.417772    36.417772    36.417772    68.282307 
  166000     1989.972    -10646.62   -9764.5982   -1903.6592    36.426711    36.426711    36.426711    68.502013 
  166500    1994.3118   -10650.583   -9766.6379   -2564.3579    36.430181    36.430181    36.430181    68.821057 
  167000    1993.6329   -10652.284   -9768.6402   -1875.7832    36.425166    36.425166    36.425166    69.106366 
  167500    1965.6718   -10641.848   -9770.5971   -187.17525    36.413504    36.413504    36.413504    69.300424 
  168000      1991.79   -10655.266   -9772.4386    -340.7608    36.400008    36.400008    36.400008    69.620954 
  168500    1952.7663   -10639.674   -9774.1432     2220.312    36.388445    36.388445    36.388445    69.995434 
  169000    1956.8693   -10643.115   -9775.7656    1094.5662     36.38543     36.38543     36.38543    70.320131 
  169500    1946.1908   -10639.917   -9777.3008    1710.6979    36.388782    36.388782    36.388782    70.510563 
  170000    1962.5696   -10648.623   -9778.7477    796.46102     36.39876     36.39876     36.39876    70.652533 
  170500    1966.9508   -10651.907   -9780.0896   -1532.3976    36.410661    36.410661    36.410661    70.859761 
  171000    1946.1095   -10643.896   -9781.3156   -1807.1593    36.417388    36.417388    36.417388    71.163553 
  171500    1933.9263   -10639.616   -9782.4357   -1064.3009    36.417165    36.417165    36.417165    71.515511 
  172000    1931.7841   -10639.634   -9783.4032   -1005.8099    36.412377    36.412377    36.412377    71.763177 
  172500    1926.5865   -10638.172   -9784.2448    462.75363    36.403258    36.403258    36.403258    71.974414 
  173000    1955.3489   -10651.608   -9784.9324    259.85011    36.393531    36.393531    36.393531    72.165446 
  173500    1917.9894   -10635.617   -9785.5006    1997.6828     36.38547     36.38547     36.38547    72.417102 
  174000    1940.6159   -10646.079   -9785.9336     1734.505    36.384693    36.384693    36.384693    72.576424 
  174500    1968.6976   -10658.873   -9786.2811   -162.93178    36.389412    36.389412    36.389412    72.806755 
  175000    1934.8165   -10644.138   -9786.5635    1193.9119    36.394522    36.394522    36.394522    73.025523 
  175500    1944.6811   -10648.661   -9786.7145   -283.15439    36.404504    36.404504    36.404504    73.226629 
  176000     1932.995   -10643.461   -9786.6937   -1093.6118    36.414967    36.414967    36.414967    73.439313 
  176500     1964.701   -10657.353   -9786.5329   -3252.7133     36.42029     36.42029     36.42029    73.662645 
  177000    1946.0796   -10648.904   -9786.3375   -2501.8811    36.412965    36.412965    36.412965    73.981017 
  177500    1955.9054   -10652.962   -9786.0402    -169.6636     36.39421     36.39421     36.39421    74.367569 
  178000    1958.3484   -10653.528   -9785.5236    1670.9446    36.373693    36.373693    36.373693    74.662226 
  178500    1951.1234    -10649.67   -9784.8679     3283.877    36.361328    36.361328    36.361328    74.796476 
  179000    1968.8239   -10656.857   -9784.2089    3005.7879    36.362117    36.362117    36.362117    74.815588 
  179500    1970.2632    -10656.83   -9783.5446    1204.1722    36.374456    36.374456    36.374456    74.917823 
  180000    1948.0054   -10646.251   -9782.8302    303.77435    36.394592    36.394592    36.394592    75.200927 
  180500    1936.4101   -10640.162   -9781.8811   -1398.6588    36.417125    36.417125    36.417125    75.409939 
  181000    1938.1651   -10639.854   -9780.7948   -2785.0448    36.433917    36.433917    36.433917    75.420152 
  181500    1948.9487   -10643.444   -9779.6056   -2883.5051    36.438998    36.438998    36.438998    75.564802 
  182000    1972.6294   -10652.729   -9778.3943   -2468.6312     36.43095     36.43095     36.43095    75.862265 
  182500    1933.7916   -10634.214   -9777.0937    796.03511    36.412916    36.412916    36.412916     76.17898 
  183000    1954.6733   -10641.979    -9775.603    1209.8668    36.394806    36.394806    36.394806    76.363513 
  183500     1964.459   -10644.704   -9773.9905    1781.3498    36.381675    36.381675    36.381675    76.632178 
  184000    1989.9376   -10654.326   -9772.3202    1265.4484     36.37681     36.37681     36.37681    76.923101 
  184500    1989.9539   -10652.653   -9770.6398    1372.0298    36.379025    36.379025    36.379025    77.187892 
  185000    2027.7737   -10667.705   -9768.9285   -744.31679    36.385627    36.385627    36.385627    77.457232 
  185500    1949.9058   -10631.569   -9767.3061    2167.5471     36.39186     36.39186     36.39186    77.726994 
  186000    1987.9022    -10646.76   -9765.6563    164.35034    36.405266    36.405266    36.405266    77.897533 
  186500    1970.3833   -10637.269   -9763.9301   -596.57646    36.420635    36.420635    36.420635    78.113846 
  187000    1974.1535   -10637.168   -9762.1582   -1316.6368    36.433703    36.433703    36.433703     78.37929 
  187500    1960.8285    -10629.45   -9760.3459   -2054.0499    36.442361    36.442361    36.442361    78.689423 
  188000    1951.6918   -10623.512   -9758.4582   -947.23231    36.444313    36.444313    36.444313    78.862269 
  188500    1979.7545   -10633.996   -9756.5038   -1914.1866    36.440195    36.440195    36.440195     79.08381 
  189000    1958.8764   -10622.738   -9754.4989     129.3972    36.429302    36.429302    36.429302    79.287451 
  189500    1995.5029   -10636.888   -9752.4156     294.2865    36.417023    36.417023    36.417023    79.499193 
  190000    1970.2927   -10623.602   -9750.3034    1537.0124    36.405452    36.405452    36.405452    79.785652 
  190500    2003.5262   -10636.197   -9748.1685    1691.9185     36.39893     36.39893     36.39893    80.084359 
  191000    1973.6091   -10620.858    -9746.089    2609.5652    36.400151    36.400151    36.400151    80.310777 
  191500     2027.612   -10642.722   -9744.0173   -754.04282    36.411481    36.411481    36.411481    80.455197 
  192000    1998.3192   -10627.688   -9741.9666    103.93492    36.423924    36.423924    36.423924    80.690741 
  192500    1997.4983   -10625.267   -9739.9095   -1075.1858     36.43652     36.43652     36.43652    80.930208 
  193000    1972.9749   -10612.376   -9737.8888   -548.52373    36.443965    36.443965    36.443965    81.253307 
  193500    1965.2819   -10606.999   -9735.9216    650.18789    36.448181    36.448181    36.448181    81.537565 
  194000    1993.8743   -10617.652   -9733.9015   -817.08794    36.451519    36.451519    36.451519    81.714731 
  194500    2029.5512   -10631.492   -9731.9275   -1576.7284    36.449929    36.449929    36.449929    81.942176 
  195000    1986.3277   -10610.398   -9729.9915    1169.1614    36.443878    36.443878    36.443878    82.287473 
  195500    2002.2435   -10615.521    -9728.061    271.97724    36.440627    36.440627    36.440627    82.732982 
  196000    2004.9159    -10614.79   -9726.1452    1245.0714    36.439097    36.439097    36.439097    83.113321 
  196500    1985.4787   -10604.309   -9724.2791    1741.1625    36.441447    36.441447    36.441447    83.496329 
  197000    1989.4784   -10604.283   -9722.4802     816.0198    36.451084    36.451084    36.451084    83.700015 
  197500    2021.4951   -10616.593   -9720.5999   -1093.3539    36.465207    36.465207    36.465207    83.835355 
  198000    1999.9972   -10605.212   -9718.7469    -1320.809    36.475258    36.475258    36.475258    84.075558 
  198500    1991.2969   -10599.587   -9716.9783   -1359.3229    36.478595    36.478595    36.478595    84.295043 
  199000     1988.702   -10596.711   -9715.2531   -639.96576    36.474759    36.474759    36.474759    84.477711 
  199500    2004.5249   -10601.971   -9713.4998   -224.29325    36.468192    36.468192    36.468192    84.651747 
  200000    2015.8058   -10605.199   -9711.7276    296.86648    36.461566    36.461566    36.461566     84.81914 
  200500    2054.3143    -10620.52   -9709.9798   -813.43552     36.45509     36.45509     36.45509    84.994418 
  201000    2028.6635    -10607.48   -9708.3091    1331.9157    36.447672    36.447672    36.447672     85.11337 
  201500    2038.2599   -10610.142   -9706.7179    981.60876    36.444117    36.444117    36.444117    85.335574 
  202000    1987.4297   -10586.158   -9705.2632    3137.6596    36.446221    36.446221    36.446221    85.598638 
  202500    2040.5254   -10608.286   -9703.8574     83.31389    36.460751    36.460751    36.460751    85.764957 
  203000    2033.0131   -10603.528   -9702.4295   -1545.2444     36.47921     36.47921     36.47921    85.981923 
  203500    2008.7975   -10591.406   -9701.0401    -1512.748    36.493483    36.493483    36.493483    86.261806 
  204000     2029.133   -10599.095   -9699.7163   -2758.1254     36.50173     36.50173     36.50173    86.578318 
  204500    2017.9741   -10592.901   -9698.4684   -1412.4798    36.499813    36.499813    36.499813    86.896895 
  205000    2009.8591   -10588.113   -9697.2772    127.42358    36.490116    36.490116    36.490116    87.154459 
  205500    2048.7511   -10604.174   -9696.0996   -1113.1931    36.478906    36.478906    36.478906    87.266492 
  206000    2072.2695   -10613.532   -9695.0334   -143.64786    36.462771    36.462771    36.462771    87.564129 
  206500    2043.8536   -10599.926   -9694.0229    2586.2984    36.444599    36.444599    36.444599    87.947688 
  207000    2086.0812   -10617.762   -9693.1416    1465.8594    36.435141    36.435141    36.435141    88.192273 
  207500    2076.5078   -10612.856   -9692.4788    1704.2338    36.432527    36.432527    36.432527    88.478394 
  208000    2018.7097   -10586.801   -9692.0422    4161.6571    36.437648    36.437648    36.437648    88.845748 
  208500    2098.2078    -10621.77   -9691.7751   -218.91843    36.458422    36.458422    36.458422    89.045309 
  209000    2010.4085   -10582.682    -9691.602    205.99076    36.485821    36.485821    36.485821      89.1218 
  209500      2073.32   -10610.254   -9691.2905   -4822.7417    36.514636    36.514636    36.514636    89.350351 
  210000    2056.1316   -10602.445    -9691.099   -5213.0891    36.527795    36.527795    36.527795    89.583998 
  210500    2035.2969   -10593.397   -9691.2865   -3853.5636    36.518074    36.518074    36.518074    89.906284 
  211000    2050.9673   -10600.668   -9691.6111   -1866.8741    36.488135    36.488135    36.488135    90.316217 
  211500    2078.3146   -10613.126   -9691.9481    793.18384    36.447108    36.447108    36.447108    90.712082 
  212000    2076.8822   -10612.583   -9692.0402    5089.7477    36.408346    36.408346    36.408346    91.157247 
  212500    2064.9096   -10607.607   -9692.3711    6692.3073    36.390516    36.390516    36.390516    91.556608 
  213000    2064.9174   -10608.509    -9693.269     4886.637    36.401698    36.401698    36.401698    91.940539 
  213500    2078.3724   -10615.592   -9694.3888    975.45226    36.435755    36.435755    36.435755    92.213229 
  214000    2055.2286   -10606.441   -9695.4962   -1032.7912    36.479243    36.479243    36.479243    92.411869 
  214500    1985.5844    -10576.51   -9696.4336   -2436.5101     36.52229     36.52229     36.52229    92.613858 
  215000    2004.4633   -10585.635   -9697.1911   -6030.7626    36.552168    36.552168    36.552168    92.817872 
  215500    1999.7215   -10584.592   -9698.2493   -6206.9126    36.556104    36.556104    36.556104    93.108789 
  216000    1994.8732   -10583.889   -9699.6957   -4499.9269    36.532014    36.532014    36.532014    93.397902 
  216500    1998.6888   -10586.949   -9701.0637   -456.39074    36.486222    36.486222    36.486222    93.741938 
  217000    2036.4436   -10604.648   -9702.0287    2788.6898    36.436752    36.436752    36.436752    94.194566 
  217500    2022.8047   -10599.335    -9702.761    6484.3995    36.401218    36.401218    36.401218    94.674224 
  218000    2019.1065    -10598.82    -9703.885    7097.4156    36.394085    36.394085    36.394085    95.026732 
  218500    2069.6684   -10622.837    -9705.492    2816.9998    36.417738    36.417738    36.417738    95.233242 
  219000      2022.37    -10603.43   -9707.0486    710.29306    36.457217    36.457217    36.457217    95.356755 
  219500    1996.9226   -10593.483   -9708.3813   -2537.6675    36.497037    36.497037    36.497037    95.573937 
  220000    2021.7398   -10605.702      -9709.6   -6142.9492    36.522532    36.522532    36.522532    95.860868 
  220500    2003.4641   -10599.137   -9711.1357    -5173.558    36.521053    36.521053    36.521053    96.133552 
  221000    2006.2677   -10602.147    -9712.903    -2585.562    36.495875    36.495875    36.495875    96.379241 
  221500    1981.8447   -10592.952   -9714.5329    780.22828    36.459285    36.459285    36.459285    96.827821 
  222000    2024.8514   -10613.435   -9715.9539    2102.0463    36.425151    36.425151    36.425151    97.243992 
  222500    2017.9051   -10611.741   -9717.3388    4821.9446    36.402806    36.402806    36.402806    97.654701 
  223000    2057.5052   -10630.911   -9718.9565     3531.909    36.400507    36.400507    36.400507    97.874214 
  223500    2039.8136   -10624.921   -9720.8081    2106.2014    36.415582    36.415582    36.415582    98.017055 
  224000    2010.9661   -10613.994   -9722.6676    645.96724    36.440625    36.440625    36.440625    98.318444 
  224500    1996.5228   -10609.362   -9724.4373    -1353.902    36.465906    36.465906    36.465906    98.636304 
  225000    1997.2329   -10611.371   -9726.1319   -3313.8359    36.483664    36.483664    36.483664    98.918683 
  225500    1998.4772   -10613.659   -9727.8681   -4022.4979    36.486614    36.486614    36.486614    99.323285 
  226000    1971.7775   -10603.624   -9729.6669   -1743.5138    36.473065    36.473065    36.473065    99.666282 
  226500    1994.0647   -10615.169   -9731.3335   -1111.1193    36.452243    36.452243    36.452243    99.928118 
  227000    1975.2506   -10608.399   -9732.9031     2059.957    36.429541    36.429541    36.429541    100.08713 
  227500    1986.8408   -10614.998    -9734.365    2802.2286    36.415272    36.415272    36.415272    100.26433 
  228000    2008.5853   -10626.162    -9735.891    1849.1672    36.412951    36.412951    36.412951     100.5632 
  228500    1992.7253   -10620.701   -9737.4589    1017.3191    36.419041    36.419041    36.419041    100.81648 
  229000    1970.8621   -10612.532   -9738.9812    584.26598    36.429609    36.429609    36.429609    101.10503 
  229500    1995.9659   -10625.108   -9740.4299   -499.50134    36.441674    36.441674    36.441674    101.33644 
  230000    1977.7772   -10618.417   -9741.8003   -1754.0936    36.453241    36.453241    36.453241    101.52723 
  230500    1969.4085   -10615.981   -9743.0737   -1958.2582    36.459243    36.459243    36.459243    101.79164 
  231000    1969.5986   -10617.321   -9744.3301   -2299.8593    36.455456    36.455456    36.455456     102.1251 
  231500    1988.7051   -10627.049   -9745.5895    -467.5628    36.441539    36.441539    36.441539    102.49349 
  232000    1983.7853    -10626.03   -9746.7506    452.30244    36.424674    36.424674    36.424674    102.82789 
  232500    1966.3943   -10619.429   -9747.8578    2230.0323    36.410685    36.410685    36.410685    103.13781 
  233000     2015.947   -10642.439   -9748.9049    1080.9163    36.405418    36.405418    36.405418    103.42562 
  233500    1994.3395   -10633.941   -9749.9835    1856.9131    36.409241    36.409241    36.409241    103.67622 
  234000    1969.0031   -10623.774   -9751.0467    974.49681     36.42168     36.42168     36.42168    103.84909 
  234500    1992.5743   -10635.183   -9752.0081   -1644.2827    36.436014    36.436014    36.436014    104.07119 
  235000    1979.0266   -10630.082   -9752.9122   -1984.7133    36.445452    36.445452    36.445452    104.31701 
  235500    1996.3416   -10638.638   -9753.7931   -3429.5871    36.446051    36.446051    36.446051    104.45374 
  236000    1965.0679   -10625.757   -9754.7742   -1016.0519    36.431272    36.431272    36.431272    104.72838 
  236500    1959.1494   -10623.969   -9755.6096    720.28995    36.410077    36.410077    36.410077    105.14875 
  237000    2000.5578   -10643.016   -9756.3026    1751.6766    36.391942    36.391942    36.391942    105.54112 
  237500    1966.9164   -10628.777   -9756.9743    3892.4614    36.383332    36.383332    36.383332    106.06162 
  238000    1973.9721   -10632.621   -9757.6918    2668.2962    36.391774    36.391774    36.391774    106.42017 
  238500    1987.2225   -10639.157   -9758.3542    4.6240555    36.413288    36.413288    36.413288    106.65568 
  239000    2002.6772   -10646.474    -9758.821   -2648.9835     36.43546     36.43546     36.43546    106.97376 
  239500    1971.9497   -10633.296   -9759.2628   -2635.2066    36.447223    36.447223    36.447223    107.29478 
  240000    1943.6349   -10621.201   -9759.7177   -1870.1987    36.446562    36.446562    36.446562    107.71041 
  240500    1967.6343   -10632.228   -9760.1074   -2005.4424    36.436373    36.436373    36.436373    108.09369 
  241000    1987.9713     -10641.6    -9760.465   -984.67928    36.417898    36.417898    36.417898     108.4391 
  241500    1970.4202   -10634.041   -9760.6856    1779.3218    36.396052    36.396052    36.396052    108.82449 
  242000    1960.7802   -10629.843   -9760.7608    3939.5728    36.382719    36.382719    36.382719    109.13485 
  242500    1964.6036   -10631.662   -9760.8848    3974.6245     36.38767     36.38767     36.38767    109.26125 
  243000    1986.0737   -10641.261   -9760.9674    289.09776    36.408597    36.408597    36.408597    109.43297 
  243500    1999.2645   -10647.052   -9760.9122   -1732.2926    36.431073    36.431073    36.431073    109.76638 
  244000    1983.2969   -10639.856   -9760.7929   -3029.4674    36.445825    36.445825    36.445825    110.08698 
  244500    1985.6126    -10640.83   -9760.7412   -3070.2319    36.445987    36.445987    36.445987      110.335 
  245000    1996.4543   -10645.651   -9760.7565   -2235.7606     36.43158     36.43158     36.43158     110.4863 
  245500    2002.3519   -10648.202   -9760.6934   -560.57466    36.409046    36.409046    36.409046    110.60811 
  246000    1957.4573   -10628.122    -9760.512    3510.7954    36.386159    36.386159    36.386159    110.69599 
  246500     1961.871   -10629.796   -9760.2304    3454.2072    36.376361    36.376361    36.376361    110.85571 
  247000    1993.3298   -10643.518   -9760.0082    2466.5936    36.381578    36.381578    36.381578    111.00744 
  247500    1996.5503   -10644.774   -9759.8366    1448.8665    36.399154    36.399154    36.399154    111.15855 
  248000     1995.389   -10643.949   -9759.5264   -1604.5008    36.423812    36.423812    36.423812     111.3615 
  248500    2011.1699   -10650.477   -9759.0601   -4469.3982    36.441714    36.441714    36.441714    111.53286 
  249000    1975.2254   -10634.189   -9758.7036   -2229.7835    36.442179    36.442179    36.442179    111.91318 
  249500    1971.8038   -10632.293    -9758.324   -455.80364    36.432824    36.432824    36.432824    112.21903 
  250000     1965.815   -10629.173   -9757.8586    257.20727     36.42147     36.42147     36.42147    112.42508 
  250500    1971.8845   -10631.335   -9757.3309    1188.1402    36.409773    36.409773    36.409773    112.68695 
  251000    1989.8186   -10638.694   -9756.7408    1619.2332     36.40187     36.40187     36.40187    112.89925 
  251500    1953.3923   -10621.962   -9756.1543    3479.2933    36.402289    36.402289    36.402289    113.18771 
  252000     2004.688   -10644.077   -9755.5328   -184.69809    36.412993    36.412993    36.412993    113.55056 
  252500    1956.0178   -10621.893   -9754.9211    759.13308    36.424819    36.424819    36.424819    113.96409 
  253000    1965.9762   -10625.595   -9754.2091   -862.39148    36.438893    36.438893    36.438893    114.33886 
  253500    1973.8844   -10628.273   -9753.3826   -1912.0805    36.449113    36.449113    36.449113    114.63582 
  254000    1985.7599   -10632.683   -9752.5286   -2529.6461    36.450673    36.450673    36.450673    114.75632 
  254500    1985.7872   -10631.852   -9751.6854   -1679.3611    36.441452    36.441452    36.441452    114.90484 
  255000     1970.452   -10624.201   -9750.8312    426.39193    36.423492    36.423492    36.423492    115.20649 
  255500    2017.6141   -10644.115   -9749.8419    356.79724    36.405394    36.405394    36.405394    115.62132 
  256000    1982.3392   -10627.462   -9748.8238    3304.4723    36.392429    36.392429    36.392429    115.93094 
  256500    1980.6726   -10625.743   -9747.8439    3019.1945    36.392502    36.392502    36.392502    116.23309 
  257000    1950.1959   -10611.345   -9746.9539    3651.0356     36.40649     36.40649     36.40649    116.55343 
  257500    2024.5754     -10643.3    -9745.941   -1527.6297     36.43332     36.43332     36.43332    116.71923 
  258000    1966.5735   -10616.449   -9744.7991   -1435.5632    36.457456    36.457456    36.457456    116.98162 
  258500    1917.4437     -10593.5   -9743.6256   -528.20761    36.475545    36.475545    36.475545    117.25835 
  259000    1976.0978   -10618.203   -9742.3315   -3964.8378    36.487798    36.487798    36.487798    117.43267 
  259500    1976.7528     -10617.2   -9741.0379   -3626.3701    36.484155    36.484155    36.484155    117.59471 
  260000    1968.9007   -10612.457   -9739.7756   -1693.7894    36.464622    36.464622    36.464622    117.83278 
  260500    1964.1473   -10608.953   -9738.3782    886.41889    36.436911    36.436911    36.436911    118.08544 
  261000    2003.0878   -10624.639   -9736.8043    2557.7995     36.41063     36.41063     36.41063    118.45571 
  261500    2006.5244   -10624.546   -9735.1884    3194.7898    36.395173    36.395173    36.395173    118.79889 
  262000    2031.2318   -10634.022   -9733.7125    3034.7025    36.394526    36.394526    36.394526    119.12627 
  262500    1998.4227    -10618.19   -9732.4234    3613.8419     36.40786     36.40786     36.40786    119.36206 
  263000    2005.9738   -10620.329    -9731.215    347.20471    36.435293    36.435293    36.435293    119.57069 
  263500    1976.6943   -10605.942    -9729.806   -1524.0142    36.464685    36.464685    36.464685    119.88316 
  264000    2010.9859   -10619.661   -9728.3251   -4410.9534    36.484097    36.484097    36.484097    120.11319 
  264500    2009.0312   -10617.488   -9727.0195   -3618.5211    36.484923    36.484923    36.484923    120.22289 
  265000    2016.5472   -10619.615   -9725.8146   -2731.2771    36.470522    36.470522    36.470522    120.35819 
  265500    2021.1006   -10620.479   -9724.6607    -634.7495    36.444524    36.444524    36.444524    120.62674 
  266000    2013.6918   -10615.903    -9723.368    2414.7849    36.415775    36.415775    36.415775    120.84048 
  266500    2032.3427   -10622.836   -9722.0348    3223.0997    36.397682    36.397682    36.397682    121.07051 
  267000    2059.2948   -10633.629    -9720.882    2573.5942    36.394579    36.394579    36.394579     121.1859 
  267500    2020.8709   -10615.672    -9719.955    4197.5655     36.40448     36.40448     36.40448    121.45499 
  268000    2017.4015   -10613.456   -9719.2771     2036.402    36.432031    36.432031    36.432031    121.73014 
  268500    2032.1736   -10619.042   -9718.3154   -2091.9512    36.467423    36.467423    36.467423    121.98759 
  269000      1981.28   -10595.553   -9717.3842   -1428.0349    36.494961    36.494961    36.494961    122.34419 
  269500    1982.6284   -10595.208   -9716.4415   -4206.0169    36.512993    36.512993    36.512993    122.59126 
  270000    1996.9905   -10600.742   -9715.6096    -4326.024    36.511773    36.511773    36.511773    122.75801 
  270500    1986.8946   -10595.611    -9714.954   -1863.2717    36.490119    36.490119    36.490119    122.98839 
  271000    2026.3774   -10612.369   -9714.2119   -278.74789    36.457892    36.457892    36.457892    123.34855 
  271500    2034.7811   -10615.189   -9713.3068    2103.9001     36.42577     36.42577     36.42577    123.63411 
  272000    2007.6203   -10602.223   -9712.3797    5241.0368    36.405492    36.405492    36.405492    123.77203 
  272500    2025.8773   -10609.613   -9711.6777    4167.2502    36.406523    36.406523    36.406523    124.02224 
  273000    2027.7429   -10609.944   -9711.1814    2147.5693    36.425369    36.425369    36.425369     124.3767 
  273500    2016.1645   -10604.346   -9710.7156   -38.561577    36.455152    36.455152    36.455152    124.48735 
  274000    2016.7638   -10603.919   -9710.0224   -2256.1155    36.483964    36.483964    36.483964    124.55615 
  274500    1990.6934   -10591.762   -9709.4206   -1958.9156    36.501572    36.501572    36.501572    124.89051 
  275000    2034.6081   -10610.693   -9708.8878   -4118.0853      36.5075      36.5075      36.5075    125.20124 
  275500    2020.8582   -10604.269   -9708.5574   -2962.5464    36.495816    36.495816    36.495816    125.54817 
  276000    2009.6422   -10598.961   -9708.2216   -290.39904    36.472183    36.472183    36.472183     125.9605 
  276500    2031.1512   -10608.098   -9707.8251    1350.7313    36.447683    36.447683    36.447683    126.18141 
  277000    2046.7049    -10614.57   -9707.4031    2052.6108    36.430099    36.430099    36.430099    126.36337 
  277500    2054.9677   -10617.949   -9707.1196    2047.8209    36.423921    36.423921    36.423921    126.55749 
  278000    2037.0143   -10609.881   -9707.0087    2472.8887    36.427428    36.427428    36.427428    126.73587 
  278500     1986.274   -10587.467   -9707.0851    3750.9062    36.441781    36.441781    36.441781    126.85987 
  279000    2028.5916   -10606.286   -9707.1476   -881.27503     36.46895     36.46895     36.46895    126.91748 
  279500    1999.4151    -10593.27   -9707.0636    -1934.749     36.49333     36.49333     36.49333    127.11168 
  280000    2000.7963   -10593.834   -9707.0146   -2636.9075    36.507773    36.507773    36.507773    127.41127 
  280500    1997.1509   -10592.229   -9707.0253   -3206.5867    36.510376    36.510376    36.510376    127.76359 
  281000    2038.3982   -10610.665   -9707.1795   -4228.3654    36.497953    36.497953    36.497953    128.23786 
  281500    2002.4433    -10594.95   -9707.4007    310.73924    36.469482    36.469482    36.469482    128.57389 
  282000    1974.6964   -10582.667   -9707.4163    3771.3016    36.441249    36.441249    36.441249    128.96662 
  282500     2018.701   -10602.167   -9707.4121     3030.319    36.426901    36.426901    36.426901    129.21223 
  283000    2057.9815    -10619.77   -9707.6043    2464.1048    36.425153    36.425153    36.425153    129.57869 
  283500    2021.3793   -10603.943   -9708.0007    2997.8604    36.434774    36.434774    36.434774    129.99475 
  284000    2012.6508   -10600.551   -9708.4772    1168.4775    36.456527    36.456527    36.456527    130.29892 
  284500    2063.4721   -10623.455   -9708.8562   -3080.9789    36.481351    36.481351    36.481351    130.59931 
  285000    1986.7295   -10589.861    -9709.277   -1662.1417    36.495368    36.495368    36.495368    130.85551 
  285500    2015.2985   -10603.017   -9709.7703   -3390.7111    36.499008    36.499008    36.499008    131.18162 
  286000    2042.8419   -10615.867   -9710.4117   -3116.7788    36.488143    36.488143    36.488143    131.54761 
  286500    2030.1407   -10610.888   -9711.0621   -864.71591    36.466416    36.466416    36.466416    131.80304 
  287000    2028.3745   -10610.808   -9711.7651    1046.1048    36.441717    36.441717    36.441717    131.91452 
  287500    2042.8713   -10617.867   -9712.3993    2207.3496     36.42189     36.42189     36.42189    132.11089 
  288000     2027.506   -10611.843   -9713.1858    3580.8003    36.413266    36.413266    36.413266    132.35747 
  288500    2022.3561   -10610.537   -9714.1618    4301.8791    36.419185    36.419185    36.419185    132.53171 
  289000    2052.2861   -10624.918   -9715.2765   -303.31239    36.441177    36.441177    36.441177    132.86424 
  289500    1993.2416   -10599.797   -9716.3268   -136.83063    36.464183    36.464183    36.464183    133.31217 
  290000    1992.5825   -10600.543   -9717.3644   -1810.2442    36.483999    36.483999    36.483999    133.67426 
  290500    2008.9947   -10608.831   -9718.3781   -3807.6859    36.494096    36.494096    36.494096     133.8841 
  291000    2002.9468   -10607.305   -9719.5324   -3073.7914    36.487249    36.487249    36.487249    134.16262 
  291500    2051.9989    -10630.35   -9720.8367   -2435.3126    36.465704    36.465704    36.465704    134.44929 
  292000    2010.6798   -10613.203   -9722.0034    1893.7522    36.437084    36.437084    36.437084     134.6659 
  292500    2032.9238   -10624.177    -9723.118    2168.6587    36.417164    36.417164    36.417164    134.85991 
  293000    2028.4867   -10623.466   -9724.3741    3150.7555    36.407613    36.407613    36.407613    135.07122 
  293500    2006.3629   -10615.046   -9725.7594    3637.3237    36.412111    36.412111    36.412111    135.35484 
  294000    2018.2587   -10621.793   -9727.2341    908.43875    36.432188    36.432188    36.432188    135.65351 
  294500    1992.2009    -10611.63   -9728.6207   -410.50023    36.458013    36.458013    36.458013    135.89079 
  295000    2034.6224   -10631.649   -9729.8367   -4746.3712    36.479978    36.479978    36.479978    136.20804 
  295500    2001.0245   -10618.078   -9731.1579   -3536.5364    36.483879    36.483879    36.483879    136.51699 
  296000    2024.4292   -10629.953   -9732.6591   -3160.2915    36.470488    36.470488    36.470488    136.78542 
  296500    1966.9895    -10605.89    -9734.055    1159.3986    36.445943    36.445943    36.445943    137.08555 
  297000    2003.1494   -10623.121   -9735.2586    521.53064     36.42645     36.42645     36.42645    137.36001 
  297500    2000.3421   -10623.153   -9736.5357    1911.8565    36.411787    36.411787    36.411787    137.56783 
  298000    2000.6966   -10624.565   -9737.7904    2489.4586    36.405608    36.405608    36.405608    137.79276 
  298500    1994.3721   -10623.094   -9739.1227    2365.6133    36.409776    36.409776    36.409776    137.94441 
  299000    2001.5442   -10627.638   -9740.4879    928.45161    36.422446    36.422446    36.422446    138.25403 
  299500    1985.7162   -10621.945   -9741.8104    183.42704    36.438675    36.438675    36.438675     138.6234 
  300000    1995.9236   -10627.726   -9743.0666   -2475.4342    36.454339    36.454339    36.454339    138.89452 
  300500    1988.6233   -10625.698   -9744.2748   -2778.8109    36.460309    36.460309    36.460309    139.17526 
  301000     1936.212   -10603.697   -9745.5037   -706.61057    36.453679    36.453679    36.453679    139.53621 
  301500    1984.4676   -10626.252   -9746.6704   -1257.1763    36.440443    36.440443    36.440443    139.85078 
  302000     1936.342   -10605.977   -9747.7264    1846.7883     36.42278     36.42278     36.42278    140.00972 
  302500    2007.3899   -10638.411   -9748.6696    707.39165    36.410694    36.410694    36.410694    140.27096 
  303000    1958.5364   -10617.713   -9749.6246     3343.853    36.403829    36.403829    36.403829    140.48868 
  303500    1942.6907   -10611.635   -9750.5703    3090.7652    36.409985    36.409985    36.409985     140.6226 
  304000    1974.7802   -10626.697   -9751.4096   -537.30274    36.426774    36.426774    36.426774    140.75895 
  304500    2010.8975   -10643.425    -9752.129   -3303.4603    36.441604    36.441604    36.441604    141.06574 
  305000    1955.8097   -10619.711   -9752.8315   -1598.9863    36.445368    36.445368    36.445368    141.25555 
  305500    2008.1654   -10643.619   -9753.5334   -3276.0376    36.439329    36.439329    36.439329    141.40378 
  306000    1990.6169   -10636.534   -9754.2267   -398.07627     36.42252     36.42252     36.42252    141.65956 
  306500    1961.2258   -10624.041   -9754.7612    2368.1056    36.405251    36.405251    36.405251    141.84871 
  307000     1998.738   -10641.123   -9755.2167    1291.9512    36.397902    36.397902    36.397902    142.06618 
  307500    2014.3506   -10648.517   -9755.6901     470.8869    36.398733    36.398733    36.398733    142.23811 
  308000    1966.0642   -10627.598   -9756.1737    1779.6491    36.405062    36.405062    36.405062    142.46626 
  308500    1969.1521   -10629.387   -9756.5934    136.75131     36.41842     36.41842     36.41842     142.8039 
  309000    1947.6773    -10620.18    -9756.905   -124.22106    36.432077    36.432077    36.432077    143.18571 
  309500    1964.4304   -10627.829   -9757.1282   -1245.5645    36.442571    36.442571    36.442571    143.43465 
  310000    1948.9617   -10621.127   -9757.2829   -1056.9093    36.448182    36.448182    36.448182     143.4741 
  310500    1977.4407   -10633.833   -9757.3657   -2012.4486    36.447474    36.447474    36.447474    143.47331 
  311000    1961.5741   -10626.857   -9757.4225   -888.84258    36.437649    36.437649    36.437649    143.58458 
  311500     2020.287   -10652.875   -9757.4171    -2302.328     36.42292     36.42292     36.42292    143.80567 
  312000    1960.2599   -10626.244   -9757.3918    1607.1271    36.401595    36.401595    36.401595    144.15624 
  312500    2007.9136   -10647.174   -9757.2006    1890.1411    36.385316    36.385316    36.385316    144.58538 
  313000    1981.9734   -10635.527   -9757.0507    3991.8985    36.379231    36.379231    36.379231    145.01413 
  313500    1976.2784   -10632.945   -9756.9927     2724.076    36.389173    36.389173    36.389173    145.26966 
  314000    1954.2266    -10623.08    -9756.902    949.46946    36.411437    36.411437    36.411437    145.51511 
  314500    1983.8213   -10635.879   -9756.5843   -2219.0237    36.436233    36.436233    36.436233     145.7503 
  315000     1972.165   -10630.347   -9756.2178   -2184.2108    36.452557    36.452557    36.452557    145.81193 
  315500    1960.9963   -10625.009   -9755.8303   -2413.8211    36.458251    36.458251    36.458251    146.02326 
  316000    1964.2774   -10626.067   -9755.4347   -1497.8513    36.452483    36.452483    36.452483    146.24036 
  316500    1968.7742   -10627.583   -9754.9574   -904.61354    36.439834    36.439834    36.439834    146.43576 
  317000    1978.9391   -10631.559   -9754.4282    144.98468    36.422225    36.422225    36.422225    146.51106 
  317500    2001.8201   -10641.032   -9753.7592    1033.1102    36.405112    36.405112    36.405112    146.64554 
  318000    2020.0782   -10648.424   -9753.0586    1159.2903    36.395007    36.395007    36.395007     146.8049 
  318500    1971.1045   -10626.053   -9752.3948    2748.5037    36.393192    36.393192    36.393192    146.91562 
  319000    1997.1045   -10636.913   -9751.7304    1459.5423     36.40209     36.40209     36.40209    147.12737 
  319500    1972.2869   -10625.263   -9751.0804    1183.6185    36.418912    36.418912    36.418912    147.32246 
  320000    1962.1264   -10619.973   -9750.2939    -555.4817    36.439844    36.439844    36.439844    147.62376 
  320500    1990.1685   -10631.528   -9749.4196   -2494.1172    36.456902    36.456902    36.456902    147.86634 
  321000    1968.5323   -10621.039   -9748.5202   -1698.0292    36.464518    36.464518    36.464518    148.00016 
  321500    1967.2157   -10619.539   -9747.6042   -1705.3877    36.463939    36.463939    36.463939    148.16606 
  322000    1969.3144   -10619.518   -9746.6526   -1784.9996    36.455386    36.455386    36.455386    148.48453 
  322500    1994.2858   -10629.571   -9745.6381    -1130.497    36.439091    36.439091    36.439091    148.66492 
  323000    1985.2293   -10624.438   -9744.5185    1578.3424    36.419326    36.419326    36.419326    148.86408 
  323500    2021.4747   -10639.294   -9743.3095    1912.6637    36.406127    36.406127    36.406127    149.18075 
  324000    2000.2589   -10628.744   -9742.1632    2565.1253    36.403261    36.403261    36.403261    149.44376 
  324500    2020.5016    -10636.63   -9741.0769    1151.6034    36.412248    36.412248    36.412248    149.62184 
  325000    2021.3122   -10635.902   -9739.9897   -771.12846    36.428486    36.428486    36.428486    149.92733 
  325500    1983.6531   -10618.073   -9738.8525   -953.69662    36.441235    36.441235    36.441235    150.24915 
  326000    1995.1372   -10622.119   -9737.8086   -688.73932    36.447979    36.447979    36.447979    150.42267 
  326500    2009.1852   -10627.275   -9736.7375   -1591.3084    36.452873    36.452873    36.452873     150.6997 
  327000    1959.4538   -10604.149   -9735.6547    317.30462    36.453629    36.453629    36.453629    151.09732 
  327500    2018.4966   -10629.183   -9734.5188   -1780.8299     36.45373     36.45373     36.45373    151.43778 
  328000    1997.1679   -10618.596   -9733.3848   -407.38533    36.448451    36.448451    36.448451    151.63286 
  328500     2014.181   -10624.995   -9732.2435    475.66114    36.440657    36.440657    36.440657    151.85924 
  329000    1984.9651   -10610.899   -9731.0968    2070.8943    36.436565    36.436565    36.436565    152.05917 
  329500    2024.1046   -10627.101   -9729.9509   -211.65534    36.440488    36.440488    36.440488    152.34084 
  330000    2005.9836   -10617.946   -9728.8275    407.03273    36.445987    36.445987    36.445987    152.56503 
  330500    2024.9022   -10625.221   -9727.7179   -1269.0319    36.452356    36.452356    36.452356    152.70173 
  331000    2001.2973   -10613.697   -9726.6562   -653.99754    36.454775    36.454775    36.454775    152.89861 
  331500    2021.0039   -10621.398   -9725.6227   -1401.9147    36.453174    36.453174    36.453174    153.14442 
  332000    2025.5006   -10622.406   -9724.6376   -697.53654    36.445638    36.445638    36.445638    153.43186 
  332500    2000.7362   -10610.461   -9723.6683    1402.9656    36.435716    36.435716    36.435716    153.60615 
  333000    2016.5544   -10616.521    -9722.717    1466.2604    36.430264    36.430264    36.430264    153.89652 
  333500    2020.6344   -10617.438   -9721.8264    1616.2713    36.431426    36.431426    36.431426     154.3495 
  334000    2007.3276   -10610.701   -9720.9872    780.10758    36.440693    36.440693    36.440693    154.51145 
  334500    2021.4215   -10616.114   -9720.1535   -724.46009    36.455276    36.455276    36.455276    154.73106 
  335000    1996.4211   -10604.158   -9719.2779   -932.56189    36.467217    36.467217    36.467217    155.01783 
  335500     2011.214    -10609.94   -9718.5036   -1950.4078    36.471371    36.471371    36.471371    155.41228 
[...]
 1017500     2033.825   -10597.688   -9696.2301    494.48322    36.470601    36.470601    36.470601    495.94318 
 1018000    2014.7393   -10587.749   -9694.7504    2350.6582    36.469278    36.469278    36.469278     496.1302 
 1018500    2044.1569   -10599.392   -9693.3545   -586.25248    36.476123    36.476123    36.476123    496.67864 
 1019000    2044.7605   -10598.342   -9692.0371   -1165.5236    36.481208    36.481208    36.481208    497.18171 
 1019500     2045.993   -10597.712   -9690.8606   -276.79875    36.481523    36.481523    36.481523    497.50651 
 1020000    2029.1205   -10589.174   -9689.8011    656.72627    36.481681    36.481681    36.481681    497.89701 
 1020500    2027.9699   -10587.705   -9688.8414    264.15286    36.483749    36.483749    36.483749    498.16922 
 1021000    2045.9922   -10594.847   -9687.9961   -704.44468    36.485498    36.485498    36.485498    498.49146 
 1021500    2042.2725   -10592.479    -9687.276   -359.47101    36.483743    36.483743    36.483743    498.44903 
 1022000     2093.335   -10614.524   -9686.6892   -2050.5586    36.478809    36.478809    36.478809    498.69833 
 1022500     2086.397   -10611.077   -9686.3164   -727.22001    36.467558    36.467558    36.467558    498.73231 
 1023000    2041.9807   -10591.141   -9686.0677     2570.369    36.454992    36.454992    36.454992    498.55416 
 1023500    2071.6344   -10604.178    -9685.961    2174.2457    36.452397    36.452397    36.452397    498.80086 
 1024000    1984.7777   -10565.797    -9686.078    4198.6891    36.460189    36.460189    36.460189    499.47913 
 1024500    2065.1925   -10601.612   -9686.2509   -1246.6413    36.480233    36.480233    36.480233     500.2598 
 1025000     2045.795    -10593.19   -9686.4265   -1696.6697    36.497069    36.497069    36.497069    500.76864 
 1025500    2063.1252   -10601.176   -9686.7307   -2853.8898    36.504819    36.504819    36.504819    501.13273 
 1026000    2003.8047   -10575.335   -9687.1823   -450.48148    36.502091    36.502091    36.502091      501.288 
 1026500    2018.6837   -10582.437   -9687.6894   -744.79187    36.495005    36.495005    36.495005    501.39703 
 1027000    2024.5315   -10585.555   -9688.2155    278.82036     36.48489     36.48489     36.48489    501.44641 
 1027500    2020.7997    -10584.47   -9688.7848    697.09732    36.476168    36.476168    36.476168    501.42704 
 1028000    2026.8815   -10587.802   -9689.4213    993.13426    36.469487    36.469487    36.469487    501.57433 
 1028500    2066.2777   -10605.954   -9690.1119    292.30739    36.467059    36.467059    36.467059    502.12452 
 1029000    2029.2913   -10590.383    -9690.934    1210.9608    36.468351    36.468351    36.468351    502.53057 
 1029500    2019.2072   -10586.822    -9691.843     752.9644    36.474233    36.474233    36.474233    502.77916 
 1030000    2037.2667   -10595.776   -9692.7926   -1353.3347    36.481387    36.481387    36.481387    503.09812 
 1030500    2024.8647   -10591.308    -9693.821   -800.28335    36.483319    36.483319    36.483319     503.3583 
 1031000    2044.6851   -10601.194   -9694.9224   -1494.5242    36.481025    36.481025    36.481025    503.54753 
 1031500      2075.29   -10615.962   -9696.1254   -2211.7531    36.472685    36.472685    36.472685    503.61354 
 1032000    2064.5246   -10612.544   -9697.4782    -114.1282    36.457252    36.457252    36.457252    503.50923 
 1032500    2032.0879   -10599.569   -9698.8809     2243.203    36.440941    36.440941    36.440941    503.22429 
 1033000    2055.8422   -10611.566   -9700.3484    2859.0644    36.432677    36.432677    36.432677    503.36385 
 1033500    2025.7551   -10599.866   -9701.9846    3514.7992    36.437809    36.437809    36.437809    503.74903 
 1034000    2031.8374   -10604.273   -9703.6958    1181.1384    36.457056    36.457056    36.457056    504.58455 
 1034500    2005.1203   -10594.055   -9705.3192   -678.32419     36.48181     36.48181     36.48181    505.41253 
 1035000    1988.6665   -10588.238   -9706.7952     -1929.56    36.505125    36.505125    36.505125    506.04811 
 1035500    1966.9148   -10579.919   -9708.1176   -3183.9567    36.518374    36.518374    36.518374    506.40317 
 1036000    2011.1256    -10600.89   -9709.4922   -4726.0654    36.514012    36.514012    36.514012     506.5532 
 1036500    1991.7449   -10593.717   -9710.9103   -2135.7689     36.49004     36.49004     36.49004    506.13947 
 1037000    2023.5702   -10609.112   -9712.1988   -43.470851    36.454764    36.454764    36.454764    505.60125 
 1037500    2041.6754   -10618.102   -9713.1638    2758.6204    36.419426    36.419426    36.419426    505.07314 
 1038000    2042.3799   -10619.381    -9714.131    4192.7551    36.395282    36.395282    36.395282    504.88985 
 1038500    2073.6934   -10634.351   -9715.2218    4255.3556    36.387744    36.387744    36.387744    505.19803 
 1039000    2033.7632    -10617.98   -9716.5491    4184.7124     36.39956     36.39956     36.39956    505.71164 
 1039500    2024.9203     -10615.4   -9717.8889    1236.0035    36.429599    36.429599    36.429599    506.27679 
 1040000    2029.4067   -10618.433   -9718.9328   -1927.3883    36.466093    36.466093    36.466093    506.93147 
 1040500    2024.9933   -10617.247   -9719.7032   -4934.4066    36.494993    36.494993    36.494993    507.55075 
 1041000    2019.6065   -10615.673   -9720.5169   -5173.0733     36.50221     36.50221     36.50221    507.74341 
 1041500    1971.1269   -10595.121   -9721.4524   -1389.6361     36.48718     36.48718     36.48718    507.91478 
 1042000    2020.2517   -10617.753   -9722.3106    -1053.653    36.462462    36.462462    36.462462    507.85345 
 1042500    1981.0531   -10600.997   -9722.9289    1778.5092    36.434729    36.434729    36.434729    507.50873 
 1043000    2055.3547   -10634.527   -9723.5257    168.32058    36.412972    36.412972    36.412972    507.12871 
 1043500    2056.3767   -10635.574   -9724.1204    2444.6806    36.395013    36.395013    36.395013    507.05349 
 1044000    2023.7131   -10621.748   -9724.7718    4616.7709    36.391275    36.391275    36.391275    507.53613 
 1044500    2009.5289   -10616.284   -9725.5941     3296.607    36.407576    36.407576    36.407576     508.3853 
 1045000    2006.6217   -10615.833   -9726.4324    1501.1193    36.437064    36.437064    36.437064    509.56675 
 1045500    2004.2447   -10615.369   -9727.0217   -1837.8357    36.469449    36.469449    36.469449    510.42171 
 1046000    1993.4158    -10611.04   -9727.4925   -2912.0277    36.491109    36.491109    36.491109    510.91217 
 1046500    1986.2547   -10608.377   -9728.0029   -3157.5106    36.497543    36.497543    36.497543    511.49535 
 1047000    1994.0559   -10612.396   -9728.5649   -2837.9766    36.489406    36.489406    36.489406    511.75262 
 1047500    2002.3228   -10616.673   -9729.1772   -2235.4262    36.469409    36.469409    36.469409     511.7128 
 1048000    1981.8751   -10608.115   -9729.6821    988.52321    36.443305    36.443305    36.443305    511.33877 
 1048500    2004.6444    -10618.59   -9730.0656    1163.4984    36.422544    36.422544    36.422544    511.50527 
 1049000    1986.6693    -10610.99   -9730.4329    3529.2911    36.409935    36.409935    36.409935    511.54429 
 1049500    2025.0776   -10628.423   -9730.8418    1869.0599    36.411957    36.411957    36.411957    511.59269 
 1050000    2024.6176   -10628.677   -9731.2994    373.14213    36.424091    36.424091    36.424091    512.26749 
 1050500    2001.6128    -10618.91    -9731.729   -134.77722    36.438702    36.438702    36.438702    512.98855 
 1051000     1972.966   -10606.598   -9732.1147   -647.40354    36.450661    36.450661    36.450661    513.43039 
 1051500    1982.6842   -10611.252   -9732.4609   -1226.2332    36.457376    36.457376    36.457376    514.05668 
 1052000    1994.9666   -10617.005   -9732.7696   -1198.2547    36.458784    36.458784    36.458784    514.51925 
 1052500    1985.6074   -10613.124   -9733.0371   -1144.0397    36.456601    36.456601    36.456601    514.51661 
 1053000    1993.1286   -10616.703   -9733.2826   -1379.0201    36.450336    36.450336    36.450336    514.66244 
 1053500    1979.0736     -10610.7   -9733.5096    379.81909    36.439078    36.439078    36.439078     514.4874 
 1054000    2015.3522   -10626.944   -9733.6729    786.81058    36.429402    36.429402    36.429402    514.25156 
 1054500    1974.9494   -10609.207   -9733.8446    2721.3539    36.425608    36.425608    36.425608    514.56952 
 1055000    2018.2968   -10628.596   -9734.0204    325.53355    36.431687    36.431687    36.431687    515.59245 
 1055500    2007.9621   -10624.198   -9734.2025    -309.9743    36.441091    36.441091    36.441091    516.47059 
 1056000    1990.3053   -10616.538   -9734.3692   -306.73508    36.448563    36.448563    36.448563    516.77002 
 1056500     2006.508   -10623.895    -9734.544   -1563.2469    36.453793    36.453793    36.453793    517.23192 
 1057000    2018.2706   -10629.296   -9734.7317   -2210.9794    36.452943    36.452943    36.452943    517.42312 
 1057500    2008.0926   -10625.015   -9734.9615     -77.6507    36.443655    36.443655    36.443655    517.17576 
 1058000    1981.3223   -10613.365   -9735.1776    1860.9038    36.434479    36.434479    36.434479    517.33451 
 1058500    2000.8334    -10622.21   -9735.3742    954.91684    36.432396    36.432396    36.432396     517.7002 
 1059000    1970.7016    -10609.06   -9735.5803    1884.7841     36.43647     36.43647     36.43647    518.15627 
 1059500    1991.4447   -10618.418   -9735.7443   -461.75835    36.445916    36.445916    36.445916    518.73619 
 1060000     1994.842   -10620.043   -9735.8628   -1591.2995    36.453703    36.453703    36.453703    519.05353 
 1060500    1978.2646   -10612.802   -9735.9697   -1460.3972    36.455361    36.455361    36.455361    519.27963 
 1061000    1994.6679   -10620.205   -9736.1027   -1767.0639    36.448705    36.448705    36.448705     519.3469 
 1061500    2020.3621   -10631.763   -9736.2718   -1410.0068    36.433179    36.433179    36.433179    519.50021 
 1062000    2043.2621   -10642.126   -9736.4849   -295.18096    36.411575    36.411575    36.411575    519.38531 
 1062500    1986.8774   -10617.268    -9736.618    4135.6055    36.391653    36.391653    36.391653    519.17797 
 1063000    2010.7222   -10628.055   -9736.8361    3579.3441    36.386992    36.386992    36.386992    519.05423 
 1063500    2023.6993   -10634.209   -9737.2386    2621.4938    36.399513    36.399513    36.399513    519.56916 
 1064000    2019.8023   -10632.885    -9737.642    227.67612    36.425186    36.425186    36.425186    520.24575 
 1064500    1974.3615   -10613.058   -9737.9556   -804.59702    36.452326    36.452326    36.452326    521.03197 
 1065000    2047.0876   -10645.493   -9738.1558   -5131.2999    36.472792    36.472792    36.472792    521.80486 
 1065500    2001.5238   -10625.667   -9738.5254   -3022.2072     36.47461     36.47461     36.47461    522.12689 
 1066000    1981.7064   -10617.345   -9738.9871   -1075.3639    36.463107    36.463107    36.463107     522.0206 
 1066500    1958.8693   -10607.604   -9739.3688    844.77551    36.446899    36.446899    36.446899    521.98611 
 1067000    1990.3154     -10621.8   -9739.6263    453.95439    36.434636    36.434636    36.434636     522.0726 
 1067500    1986.0728   -10620.175    -9739.882    1040.5011    36.426582    36.426582    36.426582    522.31168 
 1068000    1976.1756   -10616.027   -9740.1206    2440.0914    36.423738    36.423738    36.423738    522.87002 
 1068500    1997.4054   -10625.681   -9740.3645    131.76676    36.429322    36.429322    36.429322    523.41763 
 1069000    1987.2428   -10621.398   -9740.5866    -319.3492    36.436829    36.436829    36.436829    523.72914 
 1069500    1984.8006   -10620.509   -9740.7802   -674.73483    36.443783    36.443783    36.443783    524.00405 
 1070000    1992.3236   -10623.996   -9740.9327   -1728.2006    36.447839    36.447839    36.447839    524.12949 
 1070500    2005.8852    -10630.18   -9741.1051    -1507.685    36.444615    36.444615    36.444615    524.05053 
 1071000    1948.0079   -10604.715   -9741.2939     1105.406    36.435208    36.435208    36.435208    524.06941 
 1071500    1997.8788   -10626.984   -9741.4579   -417.04288     36.42527     36.42527     36.42527    524.44449 
 1072000    1993.5576   -10625.253    -9741.642    1203.4726    36.412517    36.412517    36.412517    524.48451 
 1072500    2020.6519   -10637.428   -9741.8082    1061.4451    36.403786    36.403786    36.403786    524.36981 
 1073000    1977.8041   -10618.663   -9742.0347     2808.812    36.402229    36.402229    36.402229     524.1829 
 1073500    1989.6675   -10624.185   -9742.2991    1697.8895    36.411191    36.411191    36.411191    524.45771 
 1074000      1973.08   -10617.127   -9742.5924     1259.815    36.428743    36.428743    36.428743    524.88704 
 1074500    1991.0181   -10625.234   -9742.7493   -1539.6275    36.451134    36.451134    36.451134    525.57343 
 1075000    1943.0281   -10604.051   -9742.8368   -1299.8238    36.468883    36.468883    36.468883    526.37049 
 1075500    1952.6383   -10608.295   -9742.8216   -2378.9086    36.478825    36.478825    36.478825    526.77884 
 1076000    1952.8501   -10608.356   -9742.7884    -2118.864    36.477121    36.477121    36.477121    526.64381 
 1076500    1977.4791   -10619.223   -9742.7388    -1691.988    36.464323    36.464323    36.464323    526.75653 
 1077000    2004.9597   -10631.284   -9742.6196   -1038.2109     36.44281     36.44281     36.44281    526.82181 
 1077500    2004.8785   -10631.038   -9742.4096    469.46592    36.417884    36.417884    36.417884    526.52842 
 1078000    1998.7195   -10627.999   -9742.1004    3247.0753    36.396007    36.396007    36.396007    526.37587 
 1078500    2003.1699   -10629.666   -9741.7948    3621.8365    36.387412    36.387412    36.387412    526.37627 
 1079000    2027.1601   -10640.109   -9741.6044     1711.295    36.394406    36.394406    36.394406    526.82349 
 1079500     1998.633   -10627.353   -9741.4924    2121.3741    36.411771    36.411771    36.411771    527.45769 
 1080000    2011.2822   -10632.766   -9741.2989   -1830.7549    36.438192    36.438192    36.438192    528.21681 
 1080500    1956.8713   -10608.288   -9740.9382   -1648.2905    36.460724    36.460724    36.460724    529.16357 
 1081000    1988.6895   -10621.946   -9740.4935   -3427.4643    36.474148    36.474148    36.474148    529.89702 
 1081500    1996.5287   -10624.997   -9740.0696   -2766.8236    36.473911    36.473911    36.473911    530.04707 
 1082000    2016.2369   -10633.334   -9739.6712   -2857.9005    36.461562    36.461562    36.461562    529.68969 
 1082500    1981.3835    -10617.49   -9739.2754    1231.4735    36.437131    36.437131    36.437131     529.4595 
 1083000    1987.0404   -10619.308   -9738.5856    3175.8059    36.416092    36.416092    36.416092    529.27858 
 1083500    1994.5757   -10621.971   -9737.9096    2636.6489    36.409715    36.409715    36.409715    529.36024 
 1084000    1993.7439   -10620.974   -9737.2808    2330.5032    36.417134    36.417134    36.417134    529.66406 
 1084500    1989.3867   -10618.342   -9736.5802    372.66882    36.434272    36.434272    36.434272    530.40774 
 1085000    1984.3872   -10615.351   -9735.8055   -223.93312    36.452489    36.452489    36.452489    530.82149 
 1085500    1990.7306   -10617.308   -9734.9503   -2712.0107    36.468535    36.468535    36.468535    531.22344 
 1086000    1968.5162   -10606.535   -9734.0239   -2316.9205    36.474297    36.474297    36.474297     531.4532 
 1086500    2000.1995   -10619.641   -9733.0868   -2409.4686    36.468485    36.468485    36.468485    531.60624 
 1087000    1981.6644   -10610.462   -9732.1226   -407.61696    36.452233    36.452233    36.452233    531.58849 
 1087500    1997.0594   -10616.219   -9731.0565    1795.0235    36.431468    36.431468    36.431468    531.24536 
 1088000    1978.1306   -10606.627   -9729.8544    3620.1792    36.417857    36.417857    36.417857     530.8256 
 1088500    2018.0415   -10623.141   -9728.6782     1170.725    36.417985    36.417985    36.417985     530.9075 
 1089000    1973.4843   -10602.264   -9727.5507     2759.396    36.425554    36.425554    36.425554    531.27512 
 1089500    2014.9802   -10619.497   -9726.3911   -400.76111    36.443952    36.443952    36.443952    531.76386 
 1090000    1985.4934   -10605.148   -9725.1122   -354.71886    36.463398    36.463398    36.463398    532.01146 
 1090500    1993.7914   -10607.524   -9723.8096   -2302.6622    36.479847    36.479847    36.479847    532.74475 
 1091000    1979.9699   -10600.074   -9722.4862   -2383.7777    36.486545    36.486545    36.486545    533.47292 
 1091500    2005.0055   -10609.883   -9721.1982   -2100.9194    36.481992    36.481992    36.481992    533.81002 
 1092000    1994.6627   -10604.032   -9719.9321   -873.85845     36.46733     36.46733     36.46733    533.58821 
 1092500    2030.8611   -10618.809   -9718.6647   -191.55728    36.445005    36.445005    36.445005    533.33619 
 1093000    2026.4144   -10615.492   -9717.3187    2850.5032    36.420868    36.420868    36.420868    533.60224 
 1093500    2060.8345   -10629.447   -9716.0169    2620.7246    36.406931    36.406931    36.406931    534.12203 
 1094000    2042.9212   -10620.422   -9714.9314    3167.9315    36.405605    36.405605    36.405605    534.47564 
 1094500    2037.1822   -10617.001   -9714.0541    2598.5428    36.418059    36.418059    36.418059    534.88618 
 1095000    2027.4436   -10611.952   -9713.3221    1065.3372    36.443755    36.443755    36.443755    535.62366 
 1095500    2026.8643   -10610.899   -9712.5262   -1375.8006    36.477023    36.477023    36.477023    536.58092 
 1096000    2014.5135   -10604.493   -9711.5941   -3597.0264    36.505543    36.505543    36.505543    537.37887 
 1096500    1982.0925   -10589.338   -9710.8089   -3864.6468    36.520139    36.520139    36.520139    537.63224 
 1097000     2032.796   -10611.177   -9710.1751   -5822.8794    36.516003    36.516003    36.516003    537.71993 
 1097500    2044.8382   -10616.094   -9709.7545   -3474.3556    36.487657    36.487657    36.487657    537.43875 
 1098000    2024.6799   -10606.605   -9709.2001    818.96658    36.445283    36.445283    36.445283    536.60481 
 1098500    2040.9585   -10612.993    -9708.373    3742.7331    36.404606    36.404606    36.404606    535.93516 
 1099000    2027.8293   -10606.346   -9707.5447    7993.4838    36.380527    36.380527    36.380527    535.52695 
 1099500    2047.2599   -10614.673     -9707.26    5989.0099    36.389278    36.389278    36.389278    535.76022 
 1100000    2020.5114   -10602.933    -9707.376    3895.5193    36.427595    36.427595    36.427595    536.65449 
Loop time of 5814.31 on 1 procs for 1000000 steps with 3430 atoms

Performance: 1.486 ns/day, 16.151 hours/ns, 171.989 timesteps/s
100.0% CPU use with 1 MPI tasks x 1 OpenMP threads

MPI task timing breakdown:
Section |  min time  |  avg time  |  max time  |%varavg| %total
---------------------------------------------------------------
Pair    | 5333.1     | 5333.1     | 5333.1     |   0.0 | 91.72
Neigh   | 346.73     | 346.73     | 346.73     |   0.0 |  5.96
Comm    | 25.058     | 25.058     | 25.058     |   0.0 |  0.43
Output  | 10.813     | 10.813     | 10.813     |   0.0 |  0.19
Modify  | 90.238     | 90.238     | 90.238     |   0.0 |  1.55
Other   |            | 8.371      |            |       |  0.14

Nlocal:    3430 ave 3430 max 3430 min
Histogram: 1 0 0 0 0 0 0 0 0 0
Nghost:    5068 ave 5068 max 5068 min
Histogram: 1 0 0 0 0 0 0 0 0 0
Neighs:    132849 ave 132849 max 132849 min
Histogram: 1 0 0 0 0 0 0 0 0 0

Total # of neighbors = 132849
Ave neighs/atom = 38.7315
Neighbor list builds = 88584
Dangerous builds = 13071
Total wall time: 1:44:47
