Lammps Data File for CuNi

500 	atoms
0 	bonds
0 	angles
0 	dihedrals
0 	impropers

2	atom types
0	bond types
0	angle types
0	dihedral types
0	improper types

0.0	18.0	xlo xhi
0.0	18.0	ylo yhi
0.0	18.0	zlo zhi

Atoms

	1	2	0.0	0.0	0.0
	2	1	1.8	1.8	0.0
	3	2	0.0	1.8	1.8
	4	1	1.8	0.0	1.8
	5	2	0.0	0.0	3.6
	6	2	1.8	1.8	3.6
	7	2	0.0	1.8	5.4
	8	2	1.8	0.0	5.4
	9	1	0.0	0.0	7.2
	10	2	1.8	1.8	7.2
	11	1	0.0	1.8	9.0
	12	2	1.8	0.0	9.0
	13	1	0.0	0.0	10.8
	14	2	1.8	1.8	10.8
	15	1	0.0	1.8	12.6
	16	2	1.8	0.0	12.6
	17	2	0.0	0.0	14.4
	18	2	1.8	1.8	14.4
	19	1	0.0	1.8	16.2
	20	1	1.8	0.0	16.2
	21	2	0.0	3.6	0.0
	22	2	1.8	5.4	0.0
	23	1	0.0	5.4	1.8
	24	2	1.8	3.6	1.8
	25	2	0.0	3.6	3.6
	26	2	1.8	5.4	3.6
	27	2	0.0	5.4	5.4
	28	2	1.8	3.6	5.4
	29	1	0.0	3.6	7.2
	30	2	1.8	5.4	7.2
	31	2	0.0	5.4	9.0
	32	2	1.8	3.6	9.0
	33	2	0.0	3.6	10.8
	34	1	1.8	5.4	10.8
	35	2	0.0	5.4	12.6
	36	2	1.8	3.6	12.6
	37	2	0.0	3.6	14.4
	38	2	1.8	5.4	14.4
	39	1	0.0	5.4	16.2
	40	1	1.8	3.6	16.2
	41	2	0.0	7.2	0.0
	42	2	1.8	9.0	0.0
	43	1	0.0	9.0	1.8
	44	2	1.8	7.2	1.8
	45	1	0.0	7.2	3.6
	46	2	1.8	9.0	3.6
	47	2	0.0	9.0	5.4
	48	2	1.8	7.2	5.4
	49	2	0.0	7.2	7.2
	50	2	1.8	9.0	7.2
	51	2	0.0	9.0	9.0
	52	2	1.8	7.2	9.0
	53	1	0.0	7.2	10.8
	54	2	1.8	9.0	10.8
	55	1	0.0	9.0	12.6
	56	2	1.8	7.2	12.6
	57	2	0.0	7.2	14.4
	58	1	1.8	9.0	14.4
	59	1	0.0	9.0	16.2
	60	2	1.8	7.2	16.2
	61	2	0.0	10.8	0.0
	62	1	1.8	12.6	0.0
	63	2	0.0	12.6	1.8
	64	1	1.8	10.8	1.8
	65	2	0.0	10.8	3.6
	66	1	1.8	12.6	3.6
	67	2	0.0	12.6	5.4
	68	1	1.8	10.8	5.4
	69	2	0.0	10.8	7.2
	70	2	1.8	12.6	7.2
	71	2	0.0	12.6	9.0
	72	2	1.8	10.8	9.0
	73	2	0.0	10.8	10.8
	74	2	1.8	12.6	10.8
	75	2	0.0	12.6	12.6
	76	1	1.8	10.8	12.6
	77	2	0.0	10.8	14.4
	78	2	1.8	12.6	14.4
	79	2	0.0	12.6	16.2
	80	2	1.8	10.8	16.2
	81	1	0.0	14.4	0.0
	82	1	1.8	16.2	0.0
	83	2	0.0	16.2	1.8
	84	2	1.8	14.4	1.8
	85	1	0.0	14.4	3.6
	86	2	1.8	16.2	3.6
	87	2	0.0	16.2	5.4
	88	2	1.8	14.4	5.4
	89	2	0.0	14.4	7.2
	90	1	1.8	16.2	7.2
	91	2	0.0	16.2	9.0
	92	2	1.8	14.4	9.0
	93	2	0.0	14.4	10.8
	94	2	1.8	16.2	10.8
	95	2	0.0	16.2	12.6
	96	2	1.8	14.4	12.6
	97	1	0.0	14.4	14.4
	98	2	1.8	16.2	14.4
	99	2	0.0	16.2	16.2
	100	2	1.8	14.4	16.2
	101	2	3.6	0.0	0.0
	102	1	5.4	1.8	0.0
	103	1	3.6	1.8	1.8
	104	2	5.4	0.0	1.8
	105	2	3.6	0.0	3.6
	106	2	5.4	1.8	3.6
	107	2	3.6	1.8	5.4
	108	2	5.4	0.0	5.4
	109	2	3.6	0.0	7.2
	110	2	5.4	1.8	7.2
	111	2	3.6	1.8	9.0
	112	2	5.4	0.0	9.0
	113	1	3.6	0.0	10.8
	114	1	5.4	1.8	10.8
	115	2	3.6	1.8	12.6
	116	2	5.4	0.0	12.6
	117	2	3.6	0.0	14.4
	118	2	5.4	1.8	14.4
	119	1	3.6	1.8	16.2
	120	1	5.4	0.0	16.2
	121	2	3.6	3.6	0.0
	122	2	5.4	5.4	0.0
	123	2	3.6	5.4	1.8
	124	1	5.4	3.6	1.8
	125	1	3.6	3.6	3.6
	126	2	5.4	5.4	3.6
	127	2	3.6	5.4	5.4
	128	2	5.4	3.6	5.4
	129	2	3.6	3.6	7.2
	130	1	5.4	5.4	7.2
	131	2	3.6	5.4	9.0
	132	1	5.4	3.6	9.0
	133	2	3.6	3.6	10.8
	134	2	5.4	5.4	10.8
	135	2	3.6	5.4	12.6
	136	1	5.4	3.6	12.6
	137	2	3.6	3.6	14.4
	138	1	5.4	5.4	14.4
	139	1	3.6	5.4	16.2
	140	2	5.4	3.6	16.2
	141	2	3.6	7.2	0.0
	142	2	5.4	9.0	0.0
	143	2	3.6	9.0	1.8
	144	1	5.4	7.2	1.8
	145	2	3.6	7.2	3.6
	146	2	5.4	9.0	3.6
	147	2	3.6	9.0	5.4
	148	1	5.4	7.2	5.4
	149	2	3.6	7.2	7.2
	150	2	5.4	9.0	7.2
	151	2	3.6	9.0	9.0
	152	2	5.4	7.2	9.0
	153	1	3.6	7.2	10.8
	154	2	5.4	9.0	10.8
	155	1	3.6	9.0	12.6
	156	2	5.4	7.2	12.6
	157	1	3.6	7.2	14.4
	158	2	5.4	9.0	14.4
	159	1	3.6	9.0	16.2
	160	2	5.4	7.2	16.2
	161	1	3.6	10.8	0.0
	162	2	5.4	12.6	0.0
	163	1	3.6	12.6	1.8
	164	2	5.4	10.8	1.8
	165	2	3.6	10.8	3.6
	166	2	5.4	12.6	3.6
	167	2	3.6	12.6	5.4
	168	2	5.4	10.8	5.4
	169	1	3.6	10.8	7.2
	170	2	5.4	12.6	7.2
	171	1	3.6	12.6	9.0
	172	2	5.4	10.8	9.0
	173	2	3.6	10.8	10.8
	174	2	5.4	12.6	10.8
	175	2	3.6	12.6	12.6
	176	1	5.4	10.8	12.6
	177	2	3.6	10.8	14.4
	178	2	5.4	12.6	14.4
	179	2	3.6	12.6	16.2
	180	2	5.4	10.8	16.2
	181	1	3.6	14.4	0.0
	182	1	5.4	16.2	0.0
	183	1	3.6	16.2	1.8
	184	2	5.4	14.4	1.8
	185	2	3.6	14.4	3.6
	186	2	5.4	16.2	3.6
	187	2	3.6	16.2	5.4
	188	2	5.4	14.4	5.4
	189	2	3.6	14.4	7.2
	190	2	5.4	16.2	7.2
	191	2	3.6	16.2	9.0
	192	2	5.4	14.4	9.0
	193	1	3.6	14.4	10.8
	194	1	5.4	16.2	10.8
	195	2	3.6	16.2	12.6
	196	1	5.4	14.4	12.6
	197	2	3.6	14.4	14.4
	198	1	5.4	16.2	14.4
	199	2	3.6	16.2	16.2
	200	2	5.4	14.4	16.2
	201	2	7.2	0.0	0.0
	202	2	9.0	1.8	0.0
	203	1	7.2	1.8	1.8
	204	2	9.0	0.0	1.8
	205	2	7.2	0.0	3.6
	206	2	9.0	1.8	3.6
	207	2	7.2	1.8	5.4
	208	2	9.0	0.0	5.4
	209	1	7.2	0.0	7.2
	210	2	9.0	1.8	7.2
	211	2	7.2	1.8	9.0
	212	2	9.0	0.0	9.0
	213	2	7.2	0.0	10.8
	214	1	9.0	1.8	10.8
	215	2	7.2	1.8	12.6
	216	1	9.0	0.0	12.6
	217	2	7.2	0.0	14.4
	218	2	9.0	1.8	14.4
	219	2	7.2	1.8	16.2
	220	2	9.0	0.0	16.2
	221	2	7.2	3.6	0.0
	222	2	9.0	5.4	0.0
	223	1	7.2	5.4	1.8
	224	2	9.0	3.6	1.8
	225	2	7.2	3.6	3.6
	226	2	9.0	5.4	3.6
	227	2	7.2	5.4	5.4
	228	2	9.0	3.6	5.4
	229	2	7.2	3.6	7.2
	230	2	9.0	5.4	7.2
	231	2	7.2	5.4	9.0
	232	2	9.0	3.6	9.0
	233	1	7.2	3.6	10.8
	234	2	9.0	5.4	10.8
	235	1	7.2	5.4	12.6
	236	2	9.0	3.6	12.6
	237	2	7.2	3.6	14.4
	238	2	9.0	5.4	14.4
	239	1	7.2	5.4	16.2
	240	2	9.0	3.6	16.2
	241	2	7.2	7.2	0.0
	242	2	9.0	9.0	0.0
	243	1	7.2	9.0	1.8
	244	2	9.0	7.2	1.8
	245	2	7.2	7.2	3.6
	246	1	9.0	9.0	3.6
	247	1	7.2	9.0	5.4
	248	2	9.0	7.2	5.4
	249	1	7.2	7.2	7.2
	250	1	9.0	9.0	7.2
	251	2	7.2	9.0	9.0
	252	2	9.0	7.2	9.0
	253	2	7.2	7.2	10.8
	254	2	9.0	9.0	10.8
	255	1	7.2	9.0	12.6
	256	2	9.0	7.2	12.6
	257	2	7.2	7.2	14.4
	258	2	9.0	9.0	14.4
	259	2	7.2	9.0	16.2
	260	2	9.0	7.2	16.2
	261	1	7.2	10.8	0.0
	262	2	9.0	12.6	0.0
	263	1	7.2	12.6	1.8
	264	1	9.0	10.8	1.8
	265	1	7.2	10.8	3.6
	266	2	9.0	12.6	3.6
	267	2	7.2	12.6	5.4
	268	2	9.0	10.8	5.4
	269	2	7.2	10.8	7.2
	270	2	9.0	12.6	7.2
	271	2	7.2	12.6	9.0
	272	2	9.0	10.8	9.0
	273	2	7.2	10.8	10.8
	274	2	9.0	12.6	10.8
	275	1	7.2	12.6	12.6
	276	1	9.0	10.8	12.6
	277	2	7.2	10.8	14.4
	278	1	9.0	12.6	14.4
	279	2	7.2	12.6	16.2
	280	1	9.0	10.8	16.2
	281	2	7.2	14.4	0.0
	282	1	9.0	16.2	0.0
	283	1	7.2	16.2	1.8
	284	2	9.0	14.4	1.8
	285	2	7.2	14.4	3.6
	286	2	9.0	16.2	3.6
	287	2	7.2	16.2	5.4
	288	2	9.0	14.4	5.4
	289	1	7.2	14.4	7.2
	290	2	9.0	16.2	7.2
	291	1	7.2	16.2	9.0
	292	1	9.0	14.4	9.0
	293	2	7.2	14.4	10.8
	294	1	9.0	16.2	10.8
	295	2	7.2	16.2	12.6
	296	2	9.0	14.4	12.6
	297	1	7.2	14.4	14.4
	298	1	9.0	16.2	14.4
	299	2	7.2	16.2	16.2
	300	2	9.0	14.4	16.2
	301	2	10.8	0.0	0.0
	302	2	12.6	1.8	0.0
	303	2	10.8	1.8	1.8
	304	2	12.6	0.0	1.8
	305	2	10.8	0.0	3.6
	306	2	12.6	1.8	3.6
	307	2	10.8	1.8	5.4
	308	2	12.6	0.0	5.4
	309	1	10.8	0.0	7.2
	310	2	12.6	1.8	7.2
	311	2	10.8	1.8	9.0
	312	2	12.6	0.0	9.0
	313	2	10.8	0.0	10.8
	314	2	12.6	1.8	10.8
	315	2	10.8	1.8	12.6
	316	1	12.6	0.0	12.6
	317	2	10.8	0.0	14.4
	318	2	12.6	1.8	14.4
	319	2	10.8	1.8	16.2
	320	2	12.6	0.0	16.2
	321	1	10.8	3.6	0.0
	322	2	12.6	5.4	0.0
	323	1	10.8	5.4	1.8
	324	2	12.6	3.6	1.8
	325	2	10.8	3.6	3.6
	326	2	12.6	5.4	3.6
	327	1	10.8	5.4	5.4
	328	2	12.6	3.6	5.4
	329	2	10.8	3.6	7.2
	330	2	12.6	5.4	7.2
	331	2	10.8	5.4	9.0
	332	1	12.6	3.6	9.0
	333	2	10.8	3.6	10.8
	334	2	12.6	5.4	10.8
	335	2	10.8	5.4	12.6
	336	2	12.6	3.6	12.6
	337	2	10.8	3.6	14.4
	338	2	12.6	5.4	14.4
	339	1	10.8	5.4	16.2
	340	2	12.6	3.6	16.2
	341	2	10.8	7.2	0.0
	342	2	12.6	9.0	0.0
	343	2	10.8	9.0	1.8
	344	2	12.6	7.2	1.8
	345	1	10.8	7.2	3.6
	346	2	12.6	9.0	3.6
	347	1	10.8	9.0	5.4
	348	1	12.6	7.2	5.4
	349	2	10.8	7.2	7.2
	350	2	12.6	9.0	7.2
	351	2	10.8	9.0	9.0
	352	2	12.6	7.2	9.0
	353	2	10.8	7.2	10.8
	354	2	12.6	9.0	10.8
	355	2	10.8	9.0	12.6
	356	2	12.6	7.2	12.6
	357	1	10.8	7.2	14.4
	358	2	12.6	9.0	14.4
	359	2	10.8	9.0	16.2
	360	2	12.6	7.2	16.2
	361	2	10.8	10.8	0.0
	362	1	12.6	12.6	0.0
	363	1	10.8	12.6	1.8
	364	2	12.6	10.8	1.8
	365	2	10.8	10.8	3.6
	366	2	12.6	12.6	3.6
	367	2	10.8	12.6	5.4
	368	1	12.6	10.8	5.4
	369	2	10.8	10.8	7.2
	370	2	12.6	12.6	7.2
	371	2	10.8	12.6	9.0
	372	2	12.6	10.8	9.0
	373	2	10.8	10.8	10.8
	374	2	12.6	12.6	10.8
	375	2	10.8	12.6	12.6
	376	2	12.6	10.8	12.6
	377	2	10.8	10.8	14.4
	378	1	12.6	12.6	14.4
	379	2	10.8	12.6	16.2
	380	2	12.6	10.8	16.2
	381	2	10.8	14.4	0.0
	382	2	12.6	16.2	0.0
	383	2	10.8	16.2	1.8
	384	1	12.6	14.4	1.8
	385	1	10.8	14.4	3.6
	386	1	12.6	16.2	3.6
	387	1	10.8	16.2	5.4
	388	2	12.6	14.4	5.4
	389	2	10.8	14.4	7.2
	390	2	12.6	16.2	7.2
	391	2	10.8	16.2	9.0
	392	2	12.6	14.4	9.0
	393	2	10.8	14.4	10.8
	394	2	12.6	16.2	10.8
	395	1	10.8	16.2	12.6
	396	2	12.6	14.4	12.6
	397	2	10.8	14.4	14.4
	398	1	12.6	16.2	14.4
	399	1	10.8	16.2	16.2
	400	1	12.6	14.4	16.2
	401	1	14.4	0.0	0.0
	402	2	16.2	1.8	0.0
	403	2	14.4	1.8	1.8
	404	2	16.2	0.0	1.8
	405	2	14.4	0.0	3.6
	406	2	16.2	1.8	3.6
	407	1	14.4	1.8	5.4
	408	2	16.2	0.0	5.4
	409	2	14.4	0.0	7.2
	410	2	16.2	1.8	7.2
	411	1	14.4	1.8	9.0
	412	1	16.2	0.0	9.0
	413	2	14.4	0.0	10.8
	414	2	16.2	1.8	10.8
	415	1	14.4	1.8	12.6
	416	2	16.2	0.0	12.6
	417	2	14.4	0.0	14.4
	418	2	16.2	1.8	14.4
	419	2	14.4	1.8	16.2
	420	2	16.2	0.0	16.2
	421	1	14.4	3.6	0.0
	422	2	16.2	5.4	0.0
	423	2	14.4	5.4	1.8
	424	2	16.2	3.6	1.8
	425	1	14.4	3.6	3.6
	426	2	16.2	5.4	3.6
	427	2	14.4	5.4	5.4
	428	2	16.2	3.6	5.4
	429	2	14.4	3.6	7.2
	430	2	16.2	5.4	7.2
	431	2	14.4	5.4	9.0
	432	2	16.2	3.6	9.0
	433	2	14.4	3.6	10.8
	434	2	16.2	5.4	10.8
	435	2	14.4	5.4	12.6
	436	1	16.2	3.6	12.6
	437	2	14.4	3.6	14.4
	438	1	16.2	5.4	14.4
	439	2	14.4	5.4	16.2
	440	2	16.2	3.6	16.2
	441	2	14.4	7.2	0.0
	442	2	16.2	9.0	0.0
	443	1	14.4	9.0	1.8
	444	2	16.2	7.2	1.8
	445	2	14.4	7.2	3.6
	446	2	16.2	9.0	3.6
	447	2	14.4	9.0	5.4
	448	2	16.2	7.2	5.4
	449	2	14.4	7.2	7.2
	450	2	16.2	9.0	7.2
	451	2	14.4	9.0	9.0
	452	2	16.2	7.2	9.0
	453	1	14.4	7.2	10.8
	454	1	16.2	9.0	10.8
	455	2	14.4	9.0	12.6
	456	2	16.2	7.2	12.6
	457	1	14.4	7.2	14.4
	458	2	16.2	9.0	14.4
	459	2	14.4	9.0	16.2
	460	2	16.2	7.2	16.2
	461	2	14.4	10.8	0.0
	462	2	16.2	12.6	0.0
	463	2	14.4	12.6	1.8
	464	1	16.2	10.8	1.8
	465	2	14.4	10.8	3.6
	466	2	16.2	12.6	3.6
	467	1	14.4	12.6	5.4
	468	2	16.2	10.8	5.4
	469	1	14.4	10.8	7.2
	470	1	16.2	12.6	7.2
	471	2	14.4	12.6	9.0
	472	2	16.2	10.8	9.0
	473	2	14.4	10.8	10.8
	474	2	16.2	12.6	10.8
	475	1	14.4	12.6	12.6
	476	2	16.2	10.8	12.6
	477	1	14.4	10.8	14.4
	478	2	16.2	12.6	14.4
	479	2	14.4	12.6	16.2
	480	1	16.2	10.8	16.2
	481	1	14.4	14.4	0.0
	482	2	16.2	16.2	0.0
	483	2	14.4	16.2	1.8
	484	2	16.2	14.4	1.8
	485	2	14.4	14.4	3.6
	486	1	16.2	16.2	3.6
	487	2	14.4	16.2	5.4
	488	1	16.2	14.4	5.4
	489	1	14.4	14.4	7.2
	490	2	16.2	16.2	7.2
	491	2	14.4	16.2	9.0
	492	2	16.2	14.4	9.0
	493	1	14.4	14.4	10.8
	494	2	16.2	16.2	10.8
	495	2	14.4	16.2	12.6
	496	2	16.2	14.4	12.6
	497	2	14.4	14.4	14.4
	498	2	16.2	16.2	14.4
	499	1	14.4	16.2	16.2
	500	1	16.2	14.4	16.2

Velocities

	1	0.0	0.0	0.0
	2	0.0	0.0	0.0
	3	0.0	0.0	0.0
	4	0.0	0.0	0.0
	5	0.0	0.0	0.0
	6	0.0	0.0	0.0
	7	0.0	0.0	0.0
	8	0.0	0.0	0.0
	9	0.0	0.0	0.0
	10	0.0	0.0	0.0
	11	0.0	0.0	0.0
	12	0.0	0.0	0.0
	13	0.0	0.0	0.0
	14	0.0	0.0	0.0
	15	0.0	0.0	0.0
	16	0.0	0.0	0.0
	17	0.0	0.0	0.0
	18	0.0	0.0	0.0
	19	0.0	0.0	0.0
	20	0.0	0.0	0.0
	21	0.0	0.0	0.0
	22	0.0	0.0	0.0
	23	0.0	0.0	0.0
	24	0.0	0.0	0.0
	25	0.0	0.0	0.0
	26	0.0	0.0	0.0
	27	0.0	0.0	0.0
	28	0.0	0.0	0.0
	29	0.0	0.0	0.0
	30	0.0	0.0	0.0
	31	0.0	0.0	0.0
	32	0.0	0.0	0.0
	33	0.0	0.0	0.0
	34	0.0	0.0	0.0
	35	0.0	0.0	0.0
	36	0.0	0.0	0.0
	37	0.0	0.0	0.0
	38	0.0	0.0	0.0
	39	0.0	0.0	0.0
	40	0.0	0.0	0.0
	41	0.0	0.0	0.0
	42	0.0	0.0	0.0
	43	0.0	0.0	0.0
	44	0.0	0.0	0.0
	45	0.0	0.0	0.0
	46	0.0	0.0	0.0
	47	0.0	0.0	0.0
	48	0.0	0.0	0.0
	49	0.0	0.0	0.0
	50	0.0	0.0	0.0
	51	0.0	0.0	0.0
	52	0.0	0.0	0.0
	53	0.0	0.0	0.0
	54	0.0	0.0	0.0
	55	0.0	0.0	0.0
	56	0.0	0.0	0.0
	57	0.0	0.0	0.0
	58	0.0	0.0	0.0
	59	0.0	0.0	0.0
	60	0.0	0.0	0.0
	61	0.0	0.0	0.0
	62	0.0	0.0	0.0
	63	0.0	0.0	0.0
	64	0.0	0.0	0.0
	65	0.0	0.0	0.0
	66	0.0	0.0	0.0
	67	0.0	0.0	0.0
	68	0.0	0.0	0.0
	69	0.0	0.0	0.0
	70	0.0	0.0	0.0
	71	0.0	0.0	0.0
	72	0.0	0.0	0.0
	73	0.0	0.0	0.0
	74	0.0	0.0	0.0
	75	0.0	0.0	0.0
	76	0.0	0.0	0.0
	77	0.0	0.0	0.0
	78	0.0	0.0	0.0
	79	0.0	0.0	0.0
	80	0.0	0.0	0.0
	81	0.0	0.0	0.0
	82	0.0	0.0	0.0
	83	0.0	0.0	0.0
	84	0.0	0.0	0.0
	85	0.0	0.0	0.0
	86	0.0	0.0	0.0
	87	0.0	0.0	0.0
	88	0.0	0.0	0.0
	89	0.0	0.0	0.0
	90	0.0	0.0	0.0
	91	0.0	0.0	0.0
	92	0.0	0.0	0.0
	93	0.0	0.0	0.0
	94	0.0	0.0	0.0
	95	0.0	0.0	0.0
	96	0.0	0.0	0.0
	97	0.0	0.0	0.0
	98	0.0	0.0	0.0
	99	0.0	0.0	0.0
	100	0.0	0.0	0.0
	101	0.0	0.0	0.0
	102	0.0	0.0	0.0
	103	0.0	0.0	0.0
	104	0.0	0.0	0.0
	105	0.0	0.0	0.0
	106	0.0	0.0	0.0
	107	0.0	0.0	0.0
	108	0.0	0.0	0.0
	109	0.0	0.0	0.0
	110	0.0	0.0	0.0
	111	0.0	0.0	0.0
	112	0.0	0.0	0.0
	113	0.0	0.0	0.0
	114	0.0	0.0	0.0
	115	0.0	0.0	0.0
	116	0.0	0.0	0.0
	117	0.0	0.0	0.0
	118	0.0	0.0	0.0
	119	0.0	0.0	0.0
	120	0.0	0.0	0.0
	121	0.0	0.0	0.0
	122	0.0	0.0	0.0
	123	0.0	0.0	0.0
	124	0.0	0.0	0.0
	125	0.0	0.0	0.0
	126	0.0	0.0	0.0
	127	0.0	0.0	0.0
	128	0.0	0.0	0.0
	129	0.0	0.0	0.0
	130	0.0	0.0	0.0
	131	0.0	0.0	0.0
	132	0.0	0.0	0.0
	133	0.0	0.0	0.0
	134	0.0	0.0	0.0
	135	0.0	0.0	0.0
	136	0.0	0.0	0.0
	137	0.0	0.0	0.0
	138	0.0	0.0	0.0
	139	0.0	0.0	0.0
	140	0.0	0.0	0.0
	141	0.0	0.0	0.0
	142	0.0	0.0	0.0
	143	0.0	0.0	0.0
	144	0.0	0.0	0.0
	145	0.0	0.0	0.0
	146	0.0	0.0	0.0
	147	0.0	0.0	0.0
	148	0.0	0.0	0.0
	149	0.0	0.0	0.0
	150	0.0	0.0	0.0
	151	0.0	0.0	0.0
	152	0.0	0.0	0.0
	153	0.0	0.0	0.0
	154	0.0	0.0	0.0
	155	0.0	0.0	0.0
	156	0.0	0.0	0.0
	157	0.0	0.0	0.0
	158	0.0	0.0	0.0
	159	0.0	0.0	0.0
	160	0.0	0.0	0.0
	161	0.0	0.0	0.0
	162	0.0	0.0	0.0
	163	0.0	0.0	0.0
	164	0.0	0.0	0.0
	165	0.0	0.0	0.0
	166	0.0	0.0	0.0
	167	0.0	0.0	0.0
	168	0.0	0.0	0.0
	169	0.0	0.0	0.0
	170	0.0	0.0	0.0
	171	0.0	0.0	0.0
	172	0.0	0.0	0.0
	173	0.0	0.0	0.0
	174	0.0	0.0	0.0
	175	0.0	0.0	0.0
	176	0.0	0.0	0.0
	177	0.0	0.0	0.0
	178	0.0	0.0	0.0
	179	0.0	0.0	0.0
	180	0.0	0.0	0.0
	181	0.0	0.0	0.0
	182	0.0	0.0	0.0
	183	0.0	0.0	0.0
	184	0.0	0.0	0.0
	185	0.0	0.0	0.0
	186	0.0	0.0	0.0
	187	0.0	0.0	0.0
	188	0.0	0.0	0.0
	189	0.0	0.0	0.0
	190	0.0	0.0	0.0
	191	0.0	0.0	0.0
	192	0.0	0.0	0.0
	193	0.0	0.0	0.0
	194	0.0	0.0	0.0
	195	0.0	0.0	0.0
	196	0.0	0.0	0.0
	197	0.0	0.0	0.0
	198	0.0	0.0	0.0
	199	0.0	0.0	0.0
	200	0.0	0.0	0.0
	201	0.0	0.0	0.0
	202	0.0	0.0	0.0
	203	0.0	0.0	0.0
	204	0.0	0.0	0.0
	205	0.0	0.0	0.0
	206	0.0	0.0	0.0
	207	0.0	0.0	0.0
	208	0.0	0.0	0.0
	209	0.0	0.0	0.0
	210	0.0	0.0	0.0
	211	0.0	0.0	0.0
	212	0.0	0.0	0.0
	213	0.0	0.0	0.0
	214	0.0	0.0	0.0
	215	0.0	0.0	0.0
	216	0.0	0.0	0.0
	217	0.0	0.0	0.0
	218	0.0	0.0	0.0
	219	0.0	0.0	0.0
	220	0.0	0.0	0.0
	221	0.0	0.0	0.0
	222	0.0	0.0	0.0
	223	0.0	0.0	0.0
	224	0.0	0.0	0.0
	225	0.0	0.0	0.0
	226	0.0	0.0	0.0
	227	0.0	0.0	0.0
	228	0.0	0.0	0.0
	229	0.0	0.0	0.0
	230	0.0	0.0	0.0
	231	0.0	0.0	0.0
	232	0.0	0.0	0.0
	233	0.0	0.0	0.0
	234	0.0	0.0	0.0
	235	0.0	0.0	0.0
	236	0.0	0.0	0.0
	237	0.0	0.0	0.0
	238	0.0	0.0	0.0
	239	0.0	0.0	0.0
	240	0.0	0.0	0.0
	241	0.0	0.0	0.0
	242	0.0	0.0	0.0
	243	0.0	0.0	0.0
	244	0.0	0.0	0.0
	245	0.0	0.0	0.0
	246	0.0	0.0	0.0
	247	0.0	0.0	0.0
	248	0.0	0.0	0.0
	249	0.0	0.0	0.0
	250	0.0	0.0	0.0
	251	0.0	0.0	0.0
	252	0.0	0.0	0.0
	253	0.0	0.0	0.0
	254	0.0	0.0	0.0
	255	0.0	0.0	0.0
	256	0.0	0.0	0.0
	257	0.0	0.0	0.0
	258	0.0	0.0	0.0
	259	0.0	0.0	0.0
	260	0.0	0.0	0.0
	261	0.0	0.0	0.0
	262	0.0	0.0	0.0
	263	0.0	0.0	0.0
	264	0.0	0.0	0.0
	265	0.0	0.0	0.0
	266	0.0	0.0	0.0
	267	0.0	0.0	0.0
	268	0.0	0.0	0.0
	269	0.0	0.0	0.0
	270	0.0	0.0	0.0
	271	0.0	0.0	0.0
	272	0.0	0.0	0.0
	273	0.0	0.0	0.0
	274	0.0	0.0	0.0
	275	0.0	0.0	0.0
	276	0.0	0.0	0.0
	277	0.0	0.0	0.0
	278	0.0	0.0	0.0
	279	0.0	0.0	0.0
	280	0.0	0.0	0.0
	281	0.0	0.0	0.0
	282	0.0	0.0	0.0
	283	0.0	0.0	0.0
	284	0.0	0.0	0.0
	285	0.0	0.0	0.0
	286	0.0	0.0	0.0
	287	0.0	0.0	0.0
	288	0.0	0.0	0.0
	289	0.0	0.0	0.0
	290	0.0	0.0	0.0
	291	0.0	0.0	0.0
	292	0.0	0.0	0.0
	293	0.0	0.0	0.0
	294	0.0	0.0	0.0
	295	0.0	0.0	0.0
	296	0.0	0.0	0.0
	297	0.0	0.0	0.0
	298	0.0	0.0	0.0
	299	0.0	0.0	0.0
	300	0.0	0.0	0.0
	301	0.0	0.0	0.0
	302	0.0	0.0	0.0
	303	0.0	0.0	0.0
	304	0.0	0.0	0.0
	305	0.0	0.0	0.0
	306	0.0	0.0	0.0
	307	0.0	0.0	0.0
	308	0.0	0.0	0.0
	309	0.0	0.0	0.0
	310	0.0	0.0	0.0
	311	0.0	0.0	0.0
	312	0.0	0.0	0.0
	313	0.0	0.0	0.0
	314	0.0	0.0	0.0
	315	0.0	0.0	0.0
	316	0.0	0.0	0.0
	317	0.0	0.0	0.0
	318	0.0	0.0	0.0
	319	0.0	0.0	0.0
	320	0.0	0.0	0.0
	321	0.0	0.0	0.0
	322	0.0	0.0	0.0
	323	0.0	0.0	0.0
	324	0.0	0.0	0.0
	325	0.0	0.0	0.0
	326	0.0	0.0	0.0
	327	0.0	0.0	0.0
	328	0.0	0.0	0.0
	329	0.0	0.0	0.0
	330	0.0	0.0	0.0
	331	0.0	0.0	0.0
	332	0.0	0.0	0.0
	333	0.0	0.0	0.0
	334	0.0	0.0	0.0
	335	0.0	0.0	0.0
	336	0.0	0.0	0.0
	337	0.0	0.0	0.0
	338	0.0	0.0	0.0
	339	0.0	0.0	0.0
	340	0.0	0.0	0.0
	341	0.0	0.0	0.0
	342	0.0	0.0	0.0
	343	0.0	0.0	0.0
	344	0.0	0.0	0.0
	345	0.0	0.0	0.0
	346	0.0	0.0	0.0
	347	0.0	0.0	0.0
	348	0.0	0.0	0.0
	349	0.0	0.0	0.0
	350	0.0	0.0	0.0
	351	0.0	0.0	0.0
	352	0.0	0.0	0.0
	353	0.0	0.0	0.0
	354	0.0	0.0	0.0
	355	0.0	0.0	0.0
	356	0.0	0.0	0.0
	357	0.0	0.0	0.0
	358	0.0	0.0	0.0
	359	0.0	0.0	0.0
	360	0.0	0.0	0.0
	361	0.0	0.0	0.0
	362	0.0	0.0	0.0
	363	0.0	0.0	0.0
	364	0.0	0.0	0.0
	365	0.0	0.0	0.0
	366	0.0	0.0	0.0
	367	0.0	0.0	0.0
	368	0.0	0.0	0.0
	369	0.0	0.0	0.0
	370	0.0	0.0	0.0
	371	0.0	0.0	0.0
	372	0.0	0.0	0.0
	373	0.0	0.0	0.0
	374	0.0	0.0	0.0
	375	0.0	0.0	0.0
	376	0.0	0.0	0.0
	377	0.0	0.0	0.0
	378	0.0	0.0	0.0
	379	0.0	0.0	0.0
	380	0.0	0.0	0.0
	381	0.0	0.0	0.0
	382	0.0	0.0	0.0
	383	0.0	0.0	0.0
	384	0.0	0.0	0.0
	385	0.0	0.0	0.0
	386	0.0	0.0	0.0
	387	0.0	0.0	0.0
	388	0.0	0.0	0.0
	389	0.0	0.0	0.0
	390	0.0	0.0	0.0
	391	0.0	0.0	0.0
	392	0.0	0.0	0.0
	393	0.0	0.0	0.0
	394	0.0	0.0	0.0
	395	0.0	0.0	0.0
	396	0.0	0.0	0.0
	397	0.0	0.0	0.0
	398	0.0	0.0	0.0
	399	0.0	0.0	0.0
	400	0.0	0.0	0.0
	401	0.0	0.0	0.0
	402	0.0	0.0	0.0
	403	0.0	0.0	0.0
	404	0.0	0.0	0.0
	405	0.0	0.0	0.0
	406	0.0	0.0	0.0
	407	0.0	0.0	0.0
	408	0.0	0.0	0.0
	409	0.0	0.0	0.0
	410	0.0	0.0	0.0
	411	0.0	0.0	0.0
	412	0.0	0.0	0.0
	413	0.0	0.0	0.0
	414	0.0	0.0	0.0
	415	0.0	0.0	0.0
	416	0.0	0.0	0.0
	417	0.0	0.0	0.0
	418	0.0	0.0	0.0
	419	0.0	0.0	0.0
	420	0.0	0.0	0.0
	421	0.0	0.0	0.0
	422	0.0	0.0	0.0
	423	0.0	0.0	0.0
	424	0.0	0.0	0.0
	425	0.0	0.0	0.0
	426	0.0	0.0	0.0
	427	0.0	0.0	0.0
	428	0.0	0.0	0.0
	429	0.0	0.0	0.0
	430	0.0	0.0	0.0
	431	0.0	0.0	0.0
	432	0.0	0.0	0.0
	433	0.0	0.0	0.0
	434	0.0	0.0	0.0
	435	0.0	0.0	0.0
	436	0.0	0.0	0.0
	437	0.0	0.0	0.0
	438	0.0	0.0	0.0
	439	0.0	0.0	0.0
	440	0.0	0.0	0.0
	441	0.0	0.0	0.0
	442	0.0	0.0	0.0
	443	0.0	0.0	0.0
	444	0.0	0.0	0.0
	445	0.0	0.0	0.0
	446	0.0	0.0	0.0
	447	0.0	0.0	0.0
	448	0.0	0.0	0.0
	449	0.0	0.0	0.0
	450	0.0	0.0	0.0
	451	0.0	0.0	0.0
	452	0.0	0.0	0.0
	453	0.0	0.0	0.0
	454	0.0	0.0	0.0
	455	0.0	0.0	0.0
	456	0.0	0.0	0.0
	457	0.0	0.0	0.0
	458	0.0	0.0	0.0
	459	0.0	0.0	0.0
	460	0.0	0.0	0.0
	461	0.0	0.0	0.0
	462	0.0	0.0	0.0
	463	0.0	0.0	0.0
	464	0.0	0.0	0.0
	465	0.0	0.0	0.0
	466	0.0	0.0	0.0
	467	0.0	0.0	0.0
	468	0.0	0.0	0.0
	469	0.0	0.0	0.0
	470	0.0	0.0	0.0
	471	0.0	0.0	0.0
	472	0.0	0.0	0.0
	473	0.0	0.0	0.0
	474	0.0	0.0	0.0
	475	0.0	0.0	0.0
	476	0.0	0.0	0.0
	477	0.0	0.0	0.0
	478	0.0	0.0	0.0
	479	0.0	0.0	0.0
	480	0.0	0.0	0.0
	481	0.0	0.0	0.0
	482	0.0	0.0	0.0
	483	0.0	0.0	0.0
	484	0.0	0.0	0.0
	485	0.0	0.0	0.0
	486	0.0	0.0	0.0
	487	0.0	0.0	0.0
	488	0.0	0.0	0.0
	489	0.0	0.0	0.0
	490	0.0	0.0	0.0
	491	0.0	0.0	0.0
	492	0.0	0.0	0.0
	493	0.0	0.0	0.0
	494	0.0	0.0	0.0
	495	0.0	0.0	0.0
	496	0.0	0.0	0.0
	497	0.0	0.0	0.0
	498	0.0	0.0	0.0
	499	0.0	0.0	0.0
	500	-0.0	-0.0	-0.0

