Lammps Data File for CuNi

108 	atoms
0 	bonds
0 	angles
0 	dihedrals
0 	impropers

2	atom types
0	bond types
0	angle types
0	dihedral types
0	improper types

0.0	10.8	xlo xhi
0.0	10.8	ylo yhi
0.0	10.8	zlo zhi

Atoms

	1	2	0.0	0.0	0.0
	2	2	1.8	1.8	0.0
	3	1	0.0	1.8	1.8
	4	2	1.8	0.0	1.8
	5	2	0.0	0.0	3.6
	6	2	1.8	1.8	3.6
	7	2	0.0	1.8	5.4
	8	2	1.8	0.0	5.4
	9	2	0.0	0.0	7.2
	10	1	1.8	1.8	7.2
	11	1	0.0	1.8	9.0
	12	2	1.8	0.0	9.0
	13	2	0.0	3.6	0.0
	14	2	1.8	5.4	0.0
	15	1	0.0	5.4	1.8
	16	1	1.8	3.6	1.8
	17	2	0.0	3.6	3.6
	18	1	1.8	5.4	3.6
	19	1	0.0	5.4	5.4
	20	1	1.8	3.6	5.4
	21	2	0.0	3.6	7.2
	22	1	1.8	5.4	7.2
	23	2	0.0	5.4	9.0
	24	2	1.8	3.6	9.0
	25	2	0.0	7.2	0.0
	26	1	1.8	9.0	0.0
	27	2	0.0	9.0	1.8
	28	2	1.8	7.2	1.8
	29	2	0.0	7.2	3.6
	30	2	1.8	9.0	3.6
	31	1	0.0	9.0	5.4
	32	2	1.8	7.2	5.4
	33	2	0.0	7.2	7.2
	34	2	1.8	9.0	7.2
	35	1	0.0	9.0	9.0
	36	2	1.8	7.2	9.0
	37	2	3.6	0.0	0.0
	38	2	5.4	1.8	0.0
	39	1	3.6	1.8	1.8
	40	2	5.4	0.0	1.8
	41	2	3.6	0.0	3.6
	42	1	5.4	1.8	3.6
	43	2	3.6	1.8	5.4
	44	2	5.4	0.0	5.4
	45	2	3.6	0.0	7.2
	46	2	5.4	1.8	7.2
	47	2	3.6	1.8	9.0
	48	2	5.4	0.0	9.0
	49	2	3.6	3.6	0.0
	50	2	5.4	5.4	0.0
	51	2	3.6	5.4	1.8
	52	2	5.4	3.6	1.8
	53	2	3.6	3.6	3.6
	54	2	5.4	5.4	3.6
	55	2	3.6	5.4	5.4
	56	1	5.4	3.6	5.4
	57	2	3.6	3.6	7.2
	58	2	5.4	5.4	7.2
	59	1	3.6	5.4	9.0
	60	1	5.4	3.6	9.0
	61	2	3.6	7.2	0.0
	62	2	5.4	9.0	0.0
	63	2	3.6	9.0	1.8
	64	2	5.4	7.2	1.8
	65	1	3.6	7.2	3.6
	66	2	5.4	9.0	3.6
	67	2	3.6	9.0	5.4
	68	1	5.4	7.2	5.4
	69	1	3.6	7.2	7.2
	70	2	5.4	9.0	7.2
	71	2	3.6	9.0	9.0
	72	2	5.4	7.2	9.0
	73	1	7.2	0.0	0.0
	74	1	9.0	1.8	0.0
	75	1	7.2	1.8	1.8
	76	1	9.0	0.0	1.8
	77	2	7.2	0.0	3.6
	78	2	9.0	1.8	3.6
	79	2	7.2	1.8	5.4
	80	2	9.0	0.0	5.4
	81	1	7.2	0.0	7.2
	82	2	9.0	1.8	7.2
	83	2	7.2	1.8	9.0
	84	1	9.0	0.0	9.0
	85	2	7.2	3.6	0.0
	86	2	9.0	5.4	0.0
	87	2	7.2	5.4	1.8
	88	2	9.0	3.6	1.8
	89	2	7.2	3.6	3.6
	90	1	9.0	5.4	3.6
	91	1	7.2	5.4	5.4
	92	2	9.0	3.6	5.4
	93	2	7.2	3.6	7.2
	94	2	9.0	5.4	7.2
	95	2	7.2	5.4	9.0
	96	1	9.0	3.6	9.0
	97	1	7.2	7.2	0.0
	98	2	9.0	9.0	0.0
	99	2	7.2	9.0	1.8
	100	2	9.0	7.2	1.8
	101	2	7.2	7.2	3.6
	102	2	9.0	9.0	3.6
	103	2	7.2	9.0	5.4
	104	2	9.0	7.2	5.4
	105	2	7.2	7.2	7.2
	106	2	9.0	9.0	7.2
	107	2	7.2	9.0	9.0
	108	2	9.0	7.2	9.0

Velocities

	1	0.0	0.0	0.0
	2	0.0	0.0	0.0
	3	0.0	0.0	0.0
	4	0.0	0.0	0.0
	5	0.0	0.0	0.0
	6	0.0	0.0	0.0
	7	0.0	0.0	0.0
	8	0.0	0.0	0.0
	9	0.0	0.0	0.0
	10	0.0	0.0	0.0
	11	0.0	0.0	0.0
	12	0.0	0.0	0.0
	13	0.0	0.0	0.0
	14	0.0	0.0	0.0
	15	0.0	0.0	0.0
	16	0.0	0.0	0.0
	17	0.0	0.0	0.0
	18	0.0	0.0	0.0
	19	0.0	0.0	0.0
	20	0.0	0.0	0.0
	21	0.0	0.0	0.0
	22	0.0	0.0	0.0
	23	0.0	0.0	0.0
	24	0.0	0.0	0.0
	25	0.0	0.0	0.0
	26	0.0	0.0	0.0
	27	0.0	0.0	0.0
	28	0.0	0.0	0.0
	29	0.0	0.0	0.0
	30	0.0	0.0	0.0
	31	0.0	0.0	0.0
	32	0.0	0.0	0.0
	33	0.0	0.0	0.0
	34	0.0	0.0	0.0
	35	0.0	0.0	0.0
	36	0.0	0.0	0.0
	37	0.0	0.0	0.0
	38	0.0	0.0	0.0
	39	0.0	0.0	0.0
	40	0.0	0.0	0.0
	41	0.0	0.0	0.0
	42	0.0	0.0	0.0
	43	0.0	0.0	0.0
	44	0.0	0.0	0.0
	45	0.0	0.0	0.0
	46	0.0	0.0	0.0
	47	0.0	0.0	0.0
	48	0.0	0.0	0.0
	49	0.0	0.0	0.0
	50	0.0	0.0	0.0
	51	0.0	0.0	0.0
	52	0.0	0.0	0.0
	53	0.0	0.0	0.0
	54	0.0	0.0	0.0
	55	0.0	0.0	0.0
	56	0.0	0.0	0.0
	57	0.0	0.0	0.0
	58	0.0	0.0	0.0
	59	0.0	0.0	0.0
	60	0.0	0.0	0.0
	61	0.0	0.0	0.0
	62	0.0	0.0	0.0
	63	0.0	0.0	0.0
	64	0.0	0.0	0.0
	65	0.0	0.0	0.0
	66	0.0	0.0	0.0
	67	0.0	0.0	0.0
	68	0.0	0.0	0.0
	69	0.0	0.0	0.0
	70	0.0	0.0	0.0
	71	0.0	0.0	0.0
	72	0.0	0.0	0.0
	73	0.0	0.0	0.0
	74	0.0	0.0	0.0
	75	0.0	0.0	0.0
	76	0.0	0.0	0.0
	77	0.0	0.0	0.0
	78	0.0	0.0	0.0
	79	0.0	0.0	0.0
	80	0.0	0.0	0.0
	81	0.0	0.0	0.0
	82	0.0	0.0	0.0
	83	0.0	0.0	0.0
	84	0.0	0.0	0.0
	85	0.0	0.0	0.0
	86	0.0	0.0	0.0
	87	0.0	0.0	0.0
	88	0.0	0.0	0.0
	89	0.0	0.0	0.0
	90	0.0	0.0	0.0
	91	0.0	0.0	0.0
	92	0.0	0.0	0.0
	93	0.0	0.0	0.0
	94	0.0	0.0	0.0
	95	0.0	0.0	0.0
	96	0.0	0.0	0.0
	97	0.0	0.0	0.0
	98	0.0	0.0	0.0
	99	0.0	0.0	0.0
	100	0.0	0.0	0.0
	101	0.0	0.0	0.0
	102	0.0	0.0	0.0
	103	0.0	0.0	0.0
	104	0.0	0.0	0.0
	105	0.0	0.0	0.0
	106	0.0	0.0	0.0
	107	0.0	0.0	0.0
	108	-0.0	-0.0	-0.0

