Lammps Data File for CuNi

256 	atoms
0 	bonds
0 	angles
0 	dihedrals
0 	impropers

2	atom types
0	bond types
0	angle types
0	dihedral types
0	improper types

0.0	14.4	xlo xhi
0.0	14.4	ylo yhi
0.0	14.4	zlo zhi

Atoms

	1	1	0.0	0.0	0.0
	2	2	1.8	1.8	0.0
	3	1	0.0	1.8	1.8
	4	2	1.8	0.0	1.8
	5	2	0.0	0.0	3.6
	6	2	1.8	1.8	3.6
	7	2	0.0	1.8	5.4
	8	1	1.8	0.0	5.4
	9	2	0.0	0.0	7.2
	10	2	1.8	1.8	7.2
	11	2	0.0	1.8	9.0
	12	2	1.8	0.0	9.0
	13	2	0.0	0.0	10.8
	14	2	1.8	1.8	10.8
	15	2	0.0	1.8	12.6
	16	2	1.8	0.0	12.6
	17	2	0.0	3.6	0.0
	18	2	1.8	5.4	0.0
	19	2	0.0	5.4	1.8
	20	2	1.8	3.6	1.8
	21	2	0.0	3.6	3.6
	22	2	1.8	5.4	3.6
	23	2	0.0	5.4	5.4
	24	1	1.8	3.6	5.4
	25	1	0.0	3.6	7.2
	26	1	1.8	5.4	7.2
	27	2	0.0	5.4	9.0
	28	2	1.8	3.6	9.0
	29	2	0.0	3.6	10.8
	30	2	1.8	5.4	10.8
	31	2	0.0	5.4	12.6
	32	2	1.8	3.6	12.6
	33	2	0.0	7.2	0.0
	34	1	1.8	9.0	0.0
	35	1	0.0	9.0	1.8
	36	1	1.8	7.2	1.8
	37	2	0.0	7.2	3.6
	38	2	1.8	9.0	3.6
	39	2	0.0	9.0	5.4
	40	2	1.8	7.2	5.4
	41	1	0.0	7.2	7.2
	42	2	1.8	9.0	7.2
	43	2	0.0	9.0	9.0
	44	1	1.8	7.2	9.0
	45	1	0.0	7.2	10.8
	46	1	1.8	9.0	10.8
	47	1	0.0	9.0	12.6
	48	1	1.8	7.2	12.6
	49	1	0.0	10.8	0.0
	50	2	1.8	12.6	0.0
	51	2	0.0	12.6	1.8
	52	2	1.8	10.8	1.8
	53	1	0.0	10.8	3.6
	54	1	1.8	12.6	3.6
	55	2	0.0	12.6	5.4
	56	2	1.8	10.8	5.4
	57	2	0.0	10.8	7.2
	58	2	1.8	12.6	7.2
	59	2	0.0	12.6	9.0
	60	1	1.8	10.8	9.0
	61	1	0.0	10.8	10.8
	62	2	1.8	12.6	10.8
	63	1	0.0	12.6	12.6
	64	1	1.8	10.8	12.6
	65	2	3.6	0.0	0.0
	66	2	5.4	1.8	0.0
	67	2	3.6	1.8	1.8
	68	2	5.4	0.0	1.8
	69	2	3.6	0.0	3.6
	70	2	5.4	1.8	3.6
	71	1	3.6	1.8	5.4
	72	2	5.4	0.0	5.4
	73	2	3.6	0.0	7.2
	74	2	5.4	1.8	7.2
	75	1	3.6	1.8	9.0
	76	2	5.4	0.0	9.0
	77	2	3.6	0.0	10.8
	78	2	5.4	1.8	10.8
	79	1	3.6	1.8	12.6
	80	2	5.4	0.0	12.6
	81	2	3.6	3.6	0.0
	82	2	5.4	5.4	0.0
	83	1	3.6	5.4	1.8
	84	2	5.4	3.6	1.8
	85	1	3.6	3.6	3.6
	86	2	5.4	5.4	3.6
	87	2	3.6	5.4	5.4
	88	2	5.4	3.6	5.4
	89	1	3.6	3.6	7.2
	90	1	5.4	5.4	7.2
	91	2	3.6	5.4	9.0
	92	1	5.4	3.6	9.0
	93	1	3.6	3.6	10.8
	94	2	5.4	5.4	10.8
	95	1	3.6	5.4	12.6
	96	2	5.4	3.6	12.6
	97	2	3.6	7.2	0.0
	98	2	5.4	9.0	0.0
	99	2	3.6	9.0	1.8
	100	2	5.4	7.2	1.8
	101	2	3.6	7.2	3.6
	102	2	5.4	9.0	3.6
	103	1	3.6	9.0	5.4
	104	1	5.4	7.2	5.4
	105	2	3.6	7.2	7.2
	106	2	5.4	9.0	7.2
	107	2	3.6	9.0	9.0
	108	2	5.4	7.2	9.0
	109	1	3.6	7.2	10.8
	110	2	5.4	9.0	10.8
	111	2	3.6	9.0	12.6
	112	1	5.4	7.2	12.6
	113	2	3.6	10.8	0.0
	114	2	5.4	12.6	0.0
	115	2	3.6	12.6	1.8
	116	2	5.4	10.8	1.8
	117	2	3.6	10.8	3.6
	118	1	5.4	12.6	3.6
	119	2	3.6	12.6	5.4
	120	2	5.4	10.8	5.4
	121	2	3.6	10.8	7.2
	122	2	5.4	12.6	7.2
	123	2	3.6	12.6	9.0
	124	2	5.4	10.8	9.0
	125	2	3.6	10.8	10.8
	126	1	5.4	12.6	10.8
	127	1	3.6	12.6	12.6
	128	2	5.4	10.8	12.6
	129	2	7.2	0.0	0.0
	130	1	9.0	1.8	0.0
	131	2	7.2	1.8	1.8
	132	2	9.0	0.0	1.8
	133	1	7.2	0.0	3.6
	134	2	9.0	1.8	3.6
	135	2	7.2	1.8	5.4
	136	1	9.0	0.0	5.4
	137	2	7.2	0.0	7.2
	138	2	9.0	1.8	7.2
	139	1	7.2	1.8	9.0
	140	2	9.0	0.0	9.0
	141	1	7.2	0.0	10.8
	142	2	9.0	1.8	10.8
	143	2	7.2	1.8	12.6
	144	2	9.0	0.0	12.6
	145	2	7.2	3.6	0.0
	146	2	9.0	5.4	0.0
	147	2	7.2	5.4	1.8
	148	2	9.0	3.6	1.8
	149	2	7.2	3.6	3.6
	150	2	9.0	5.4	3.6
	151	2	7.2	5.4	5.4
	152	2	9.0	3.6	5.4
	153	1	7.2	3.6	7.2
	154	2	9.0	5.4	7.2
	155	2	7.2	5.4	9.0
	156	1	9.0	3.6	9.0
	157	2	7.2	3.6	10.8
	158	1	9.0	5.4	10.8
	159	1	7.2	5.4	12.6
	160	2	9.0	3.6	12.6
	161	2	7.2	7.2	0.0
	162	2	9.0	9.0	0.0
	163	1	7.2	9.0	1.8
	164	2	9.0	7.2	1.8
	165	2	7.2	7.2	3.6
	166	2	9.0	9.0	3.6
	167	1	7.2	9.0	5.4
	168	2	9.0	7.2	5.4
	169	1	7.2	7.2	7.2
	170	1	9.0	9.0	7.2
	171	1	7.2	9.0	9.0
	172	1	9.0	7.2	9.0
	173	2	7.2	7.2	10.8
	174	2	9.0	9.0	10.8
	175	1	7.2	9.0	12.6
	176	1	9.0	7.2	12.6
	177	2	7.2	10.8	0.0
	178	1	9.0	12.6	0.0
	179	1	7.2	12.6	1.8
	180	2	9.0	10.8	1.8
	181	1	7.2	10.8	3.6
	182	1	9.0	12.6	3.6
	183	2	7.2	12.6	5.4
	184	2	9.0	10.8	5.4
	185	1	7.2	10.8	7.2
	186	2	9.0	12.6	7.2
	187	2	7.2	12.6	9.0
	188	2	9.0	10.8	9.0
	189	2	7.2	10.8	10.8
	190	2	9.0	12.6	10.8
	191	2	7.2	12.6	12.6
	192	1	9.0	10.8	12.6
	193	1	10.8	0.0	0.0
	194	1	12.6	1.8	0.0
	195	2	10.8	1.8	1.8
	196	2	12.6	0.0	1.8
	197	2	10.8	0.0	3.6
	198	1	12.6	1.8	3.6
	199	2	10.8	1.8	5.4
	200	1	12.6	0.0	5.4
	201	2	10.8	0.0	7.2
	202	2	12.6	1.8	7.2
	203	1	10.8	1.8	9.0
	204	2	12.6	0.0	9.0
	205	2	10.8	0.0	10.8
	206	2	12.6	1.8	10.8
	207	2	10.8	1.8	12.6
	208	1	12.6	0.0	12.6
	209	2	10.8	3.6	0.0
	210	2	12.6	5.4	0.0
	211	2	10.8	5.4	1.8
	212	2	12.6	3.6	1.8
	213	1	10.8	3.6	3.6
	214	2	12.6	5.4	3.6
	215	2	10.8	5.4	5.4
	216	2	12.6	3.6	5.4
	217	1	10.8	3.6	7.2
	218	1	12.6	5.4	7.2
	219	2	10.8	5.4	9.0
	220	2	12.6	3.6	9.0
	221	2	10.8	3.6	10.8
	222	1	12.6	5.4	10.8
	223	1	10.8	5.4	12.6
	224	2	12.6	3.6	12.6
	225	2	10.8	7.2	0.0
	226	1	12.6	9.0	0.0
	227	1	10.8	9.0	1.8
	228	1	12.6	7.2	1.8
	229	2	10.8	7.2	3.6
	230	2	12.6	9.0	3.6
	231	2	10.8	9.0	5.4
	232	1	12.6	7.2	5.4
	233	2	10.8	7.2	7.2
	234	2	12.6	9.0	7.2
	235	2	10.8	9.0	9.0
	236	1	12.6	7.2	9.0
	237	2	10.8	7.2	10.8
	238	1	12.6	9.0	10.8
	239	2	10.8	9.0	12.6
	240	1	12.6	7.2	12.6
	241	2	10.8	10.8	0.0
	242	2	12.6	12.6	0.0
	243	1	10.8	12.6	1.8
	244	2	12.6	10.8	1.8
	245	2	10.8	10.8	3.6
	246	2	12.6	12.6	3.6
	247	2	10.8	12.6	5.4
	248	2	12.6	10.8	5.4
	249	2	10.8	10.8	7.2
	250	2	12.6	12.6	7.2
	251	2	10.8	12.6	9.0
	252	2	12.6	10.8	9.0
	253	2	10.8	10.8	10.8
	254	2	12.6	12.6	10.8
	255	1	10.8	12.6	12.6
	256	2	12.6	10.8	12.6

Velocities

	1	0.2201	-0.0287	-0.2287
	2	-0.8134	-0.2425	0.0243
	3	1.3605	0.0282	-0.2637
	4	-1.4003	0.2866	-0.0392
	5	1.0264	-0.6346	0.1775
	6	1.1455	-0.4149	0.1684
	7	-1.1996	-0.6574	-1.3852
	8	1.5014	-0.2562	0.2118
	9	0.2579	0.1174	-1.283
	10	0.1101	0.1831	0.6637
	11	-0.5445	0.1924	0.7686
	12	0.033	-0.9639	-0.2957
	13	-1.2455	-0.6767	0.052
	14	0.6168	0.6485	-2.1061
	15	-0.2732	2.5935	-0.4721
	16	1.0028	-0.7143	0.8507
	17	-1.0729	0.6902	0.2104
	18	-0.1213	0.1553	1.7729
	19	0.2325	-0.0078	-0.622
	20	-0.0634	1.3859	0.6355
	21	-0.4952	0.2444	-0.6469
	22	0.4993	0.5535	1.1519
	23	1.5743	0.0951	-0.5861
	24	-0.2279	-0.4412	-1.9427
	25	-1.6153	-0.4253	0.6342
	26	-1.3641	-0.0711	-1.7929
	27	-1.6604	-1.553	0.4553
	28	-0.3626	-1.2457	-0.681
	29	-1.5393	-1.0971	0.3531
	30	-0.3251	0.3677	-1.2246
	31	1.6111	0.644	-0.1569
	32	0.5811	-1.1983	0.1083
	33	0.7424	1.1149	0.3009
	34	-0.8324	0.5418	-1.7823
	35	-1.6128	0.0819	0.6238
	36	0.7553	-0.0195	0.4877
	37	0.0396	0.41	-1.1847
	38	-0.6525	0.3441	0.1864
	39	-1.8003	1.6635	-0.4704
	40	-0.0416	-0.2833	0.7745
	41	-0.4445	-1.0329	0.6753
	42	-1.3433	-0.7167	-1.4249
	43	1.3218	0.2066	0.5275
	44	-0.0184	0.2026	0.0589
	45	0.011	0.5589	0.0244
	46	1.1841	0.6124	0.2031
	47	1.1544	0.8808	-1.7128
	48	-0.3358	1.7658	-0.141
	49	-0.033	-0.1776	0.9101
	50	0.8946	-0.2276	0.5569
	51	-0.3838	0.1256	0.1897
	52	1.0	-0.8017	-1.2782
	53	1.9798	-0.9881	-1.2048
	54	0.3661	1.0173	0.9087
	55	0.5621	0.3748	0.7854
	56	-0.9383	-0.3348	-0.5489
	57	-0.3662	0.2876	-0.2052
	58	-1.1933	1.8452	-0.2642
	59	-0.1572	-0.7044	-0.4873
	60	0.0721	-2.2118	-1.4009
	61	-0.3323	-0.8455	0.8683
	62	-0.0356	-0.6111	0.2652
	63	0.0742	-0.1147	0.4994
	64	-1.7269	-0.3583	0.1252
	65	0.1309	-0.4189	-0.6158
	66	0.4186	-1.137	2.0134
	67	-0.1556	0.4247	0.5244
	68	0.4169	1.0145	0.2517
	69	-0.0512	0.2162	-0.8323
	70	-0.0729	-0.4922	-1.8636
	71	-0.3478	-0.7524	0.8616
	72	1.4071	-0.6974	-0.4194
	73	-0.1885	0.1954	1.9853
	74	1.0786	1.3277	-0.3452
	75	-0.6541	1.6011	1.7083
	76	-1.6538	-0.625	-0.0473
	77	-0.9252	-0.6514	1.1468
	78	-1.3229	0.5043	1.3688
	79	0.9008	1.1025	-0.3588
	80	-0.432	-1.0071	-0.1942
	81	-1.7308	-0.1078	1.6981
	82	-1.1393	-0.4306	-0.159
	83	0.3725	0.0483	-0.3109
	84	-0.4091	0.719	-1.6083
	85	-0.4964	-0.0946	0.1281
	86	-0.3909	-0.3703	0.7783
	87	0.668	-0.0004	-0.2951
	88	-0.0922	-0.2611	-0.9634
	89	-0.4433	-0.7802	1.5103
	90	1.4975	-1.1958	-1.5808
	91	0.7716	-0.9418	0.1626
	92	-0.8555	-0.3105	-0.6416
	93	-1.0172	1.1008	-0.3437
	94	-0.1499	-1.1932	-0.1475
	95	0.4037	0.38	0.5194
	96	0.0386	-1.2928	0.2215
	97	-0.5231	1.0687	0.9092
	98	-0.3431	1.0026	-0.9047
	99	-1.9893	1.6007	0.0215
	100	1.0834	1.1324	0.5267
	101	0.533	0.5639	-0.3223
	102	-0.4315	-0.0867	1.2146
	103	0.699	1.387	1.2853
	104	-0.3985	-1.6251	-1.435
	105	0.1218	0.5734	-1.7163
	106	0.1653	0.3754	-0.3853
	107	-0.8395	1.3673	0.7227
	108	-0.5942	-1.8536	0.8617
	109	0.3636	1.1474	0.6207
	110	1.072	-0.4679	0.2473
	111	-0.2748	-0.6516	-0.2721
	112	0.2336	-0.5959	-0.9814
	113	1.1867	-0.8325	-0.2622
	114	1.5014	-0.5672	-0.6974
	115	-0.4383	-0.1641	0.7479
	116	-0.0469	-0.2332	-0.3494
	117	1.1943	0.3944	0.0318
	118	-0.0264	0.734	0.4475
	119	0.586	1.8109	1.1912
	120	-1.1033	-0.7677	-0.3655
	121	-0.6847	0.9435	0.0107
	122	0.9581	0.2109	-1.0557
	123	0.0219	-0.1909	0.6094
	124	-0.9763	-1.0872	0.3743
	125	-0.2095	-1.4519	-0.8604
	126	-0.3539	-0.3809	0.2933
	127	1.1297	1.0618	-0.6642
	128	1.0837	0.7891	0.5119
	129	-0.4104	1.6447	-0.9276
	130	0.3385	-0.0387	1.0499
	131	-0.7088	-0.2066	-0.7071
	132	0.9072	0.7389	1.3905
	133	0.1291	-0.2711	0.2312
	134	0.5527	-0.3806	0.372
	135	-0.0378	-1.2256	0.413
	136	1.4142	-0.1666	-0.9377
	137	1.2398	-0.4663	0.4282
	138	0.0518	-1.0691	0.2161
	139	-0.8755	-0.2015	-0.5645
	140	-1.4315	-0.1686	-1.5809
	141	0.651	-0.3316	-1.076
	142	-1.0261	0.9788	0.5692
	143	-0.837	-0.2286	-0.5864
	144	-0.1478	0.0319	1.0873
	145	0.7742	-1.2599	-1.1961
	146	-0.5762	-0.4326	-0.6063
	147	0.3126	0.3674	0.3468
	148	-1.5511	0.5218	-0.0569
	149	0.2061	-0.1718	2.8573
	150	0.5242	0.1276	0.6054
	151	-0.3065	0.9319	0.1484
	152	0.5017	-1.3043	-0.1467
	153	-1.5845	0.9517	-0.8012
	154	-0.3081	-0.163	-1.1731
	155	0.1687	-0.2814	0.8829
	156	0.5838	-0.2407	1.1073
	157	1.0612	-0.5807	0.7865
	158	-0.134	1.291	0.5041
	159	-1.117	0.3705	0.1152
	160	1.3615	1.316	0.0285
	161	-0.434	-0.1377	-1.6431
	162	1.2562	0.6353	-1.0726
	163	0.0793	0.4979	-0.3203
	164	0.6369	-1.1938	1.6631
	165	0.1462	0.6837	0.1392
	166	0.1741	-0.9744	1.0883
	167	-0.1442	-0.7558	-0.4068
	168	-0.5035	-0.6509	-0.5419
	169	0.3081	1.4501	-0.7611
	170	0.4265	0.8862	-1.4312
	171	1.0718	-0.1638	-1.2227
	172	-0.175	-0.0251	0.0781
	173	0.4887	1.3509	0.4056
	174	-0.6873	-0.8634	0.1739
	175	-0.6216	-1.3082	1.4285
	176	-1.2548	0.1041	0.3786
	177	-0.1289	-0.2586	-0.9709
	178	-0.9907	0.0128	0.9222
	179	0.0324	0.9541	2.0118
	180	-0.9971	-0.1295	0.3731
	181	1.2312	-0.1447	1.2334
	182	-0.3553	0.0937	-0.2764
	183	0.4417	0.4705	-0.1021
	184	0.8956	0.0282	0.4888
	185	-0.8164	-0.9388	0.5192
	186	-0.0283	0.4868	-0.6693
	187	0.2008	-0.5504	-0.4352
	188	-0.4652	-0.1122	-0.1327
	189	0.318	0.7398	-0.1825
	190	0.9892	-1.4245	-0.0639
	191	1.0276	0.3479	-0.5043
	192	-0.8635	0.6832	-0.2374
	193	0.0005	-0.4116	0.3565
	194	0.0574	-0.0644	1.2926
	195	0.5922	-0.565	0.2836
	196	0.6647	-0.1699	0.0109
	197	-0.9532	-0.3233	0.7898
	198	-1.5661	1.5443	-1.0134
	199	0.5426	-1.1744	-1.0408
	200	0.2687	-1.3574	0.0033
	201	0.0066	-0.919	-0.1398
	202	-0.8262	-0.8759	-0.1307
	203	0.6497	0.4275	-1.243
	204	0.5579	-0.4149	-0.5512
	205	0.4146	0.0646	0.7164
	206	-1.6092	-1.2695	-0.1534
	207	0.1391	0.6718	-0.3649
	208	-0.2701	-1.3124	-1.2514
	209	-0.959	0.1287	0.5479
	210	0.0178	-0.335	-0.4692
	211	-0.6609	0.8315	-0.6558
	212	-1.1518	-0.8226	-0.793
	213	0.624	-0.0649	-1.5215
	214	-0.3957	0.0939	0.1605
	215	-0.9072	-0.5232	1.4254
	216	0.7091	0.4779	0.3774
	217	0.0532	0.7408	1.1397
	218	0.126	0.7171	0.2118
	219	1.4092	0.977	-0.6368
	220	0.1511	-0.8516	-0.0691
	221	0.0652	-1.2936	-0.7339
	222	-0.8937	1.2829	0.6063
	223	-1.3697	-1.7564	0.3642
	224	-0.1456	-1.5952	-0.8
	225	-0.6036	-0.7873	-0.1729
	226	-0.2521	0.3726	-0.3133
	227	1.0204	0.261	-0.1507
	228	0.2722	-1.4683	0.1018
	229	0.0544	-0.2385	-0.3902
	230	-0.2793	0.5851	-0.9743
	231	-0.9249	-0.9596	-0.191
	232	-0.3379	0.0193	-0.0563
	233	1.3685	-0.7288	0.4566
	234	-0.6047	0.6548	0.643
	235	-0.9154	-0.2135	0.1212
	236	0.7774	-0.6056	-1.1178
	237	-0.6683	0.6177	-0.4398
	238	0.298	0.1987	-0.933
	239	1.2198	-0.5015	-0.0418
	240	-1.3192	-0.7547	-1.1089
	241	0.2849	0.4729	-1.7299
	242	-0.3654	-0.9333	-0.9255
	243	0.2348	-0.6639	-0.4916
	244	-0.5844	-1.2105	-0.8093
	245	-0.0928	0.7514	-0.6638
	246	0.8689	-0.7499	0.1403
	247	-1.7168	0.9615	-0.2744
	248	0.0083	-0.0793	0.735
	249	-0.2659	1.1492	-0.3216
	250	-0.173	0.6708	2.1241
	251	0.4146	1.5694	1.637
	252	-0.4279	0.1783	0.0457
	253	-1.327	0.0962	-0.112
	254	-0.1299	-1.0547	-0.8119
	255	0.5032	-0.2237	-1.5505
	256	13.7029	9.6362	12.2636

