CuNi atom datafile for lammps scripts 

4 atoms
2 atom types
0.0 4.046 xlo xhi
0.0 4.046 ylo yhi
0.0 4.046 zlo zhi

Atoms

1 1 0.0 0.0 0.0
2 2 2.023 2.023 0.0
3 1 2.023 0.0 2.023
4 1 0.0 2.023 2.023
