CuNi atom datafile for lammps scripts 

256 atoms
2 atom types
0.0 14.52 xlo xhi
0.0 14.52 ylo yhi
0.0 14.52 zlo zhi
0.0 0.0 0.0 xy xz yz

Atoms

1 1 0.0 0.0 0.0
2 1 1.815 1.815 0.0
3 1 1.815 0.0 1.815
4 1 0.0 1.815 1.815
5 1 0.0 0.0 3.63
6 1 1.815 1.815 3.63
7 1 1.815 0.0 5.445
8 1 0.0 1.815 5.445
9 1 0.0 0.0 7.26
10 1 1.815 1.815 7.26
11 1 1.815 0.0 9.075
12 1 0.0 1.815 9.075
13 1 0.0 0.0 10.89
14 1 1.815 1.815 10.89
15 1 1.815 0.0 12.705
16 1 0.0 1.815 12.705
17 1 0.0 3.63 0.0
18 1 1.815 5.445 0.0
19 2 1.815 3.63 1.815
20 1 0.0 5.445 1.815
21 1 0.0 3.63 3.63
22 2 1.815 5.445 3.63
23 1 1.815 3.63 5.445
24 1 0.0 5.445 5.445
25 1 0.0 3.63 7.26
26 1 1.815 5.445 7.26
27 1 1.815 3.63 9.075
28 1 0.0 5.445 9.075
29 1 0.0 3.63 10.89
30 1 1.815 5.445 10.89
31 1 1.815 3.63 12.705
32 1 0.0 5.445 12.705
33 1 0.0 7.26 0.0
34 1 1.815 9.075 0.0
35 1 1.815 7.26 1.815
36 1 0.0 9.075 1.815
37 1 0.0 7.26 3.63
38 1 1.815 9.075 3.63
39 1 1.815 7.26 5.445
40 1 0.0 9.075 5.445
41 1 0.0 7.26 7.26
42 1 1.815 9.075 7.26
43 1 1.815 7.26 9.075
44 1 0.0 9.075 9.075
45 1 0.0 7.26 10.89
46 1 1.815 9.075 10.89
47 1 1.815 7.26 12.705
48 1 0.0 9.075 12.705
49 1 0.0 10.89 0.0
50 1 1.815 12.705 0.0
51 1 1.815 10.89 1.815
52 1 0.0 12.705 1.815
53 1 0.0 10.89 3.63
54 1 1.815 12.705 3.63
55 1 1.815 10.89 5.445
56 1 0.0 12.705 5.445
57 2 0.0 10.89 7.26
58 1 1.815 12.705 7.26
59 1 1.815 10.89 9.075
60 1 0.0 12.705 9.075
61 1 0.0 10.89 10.89
62 1 1.815 12.705 10.89
63 1 1.815 10.89 12.705
64 1 0.0 12.705 12.705
65 1 3.63 0.0 0.0
66 1 5.445 1.815 0.0
67 1 5.445 0.0 1.815
68 1 3.63 1.815 1.815
69 1 3.63 0.0 3.63
70 1 5.445 1.815 3.63
71 1 5.445 0.0 5.445
72 1 3.63 1.815 5.445
73 1 3.63 0.0 7.26
74 2 5.445 1.815 7.26
75 1 5.445 0.0 9.075
76 1 3.63 1.815 9.075
77 1 3.63 0.0 10.89
78 1 5.445 1.815 10.89
79 1 5.445 0.0 12.705
80 1 3.63 1.815 12.705
81 1 3.63 3.63 0.0
82 1 5.445 5.445 0.0
83 1 5.445 3.63 1.815
84 1 3.63 5.445 1.815
85 1 3.63 3.63 3.63
86 1 5.445 5.445 3.63
87 1 5.445 3.63 5.445
88 1 3.63 5.445 5.445
89 1 3.63 3.63 7.26
90 1 5.445 5.445 7.26
91 2 5.445 3.63 9.075
92 2 3.63 5.445 9.075
93 2 3.63 3.63 10.89
94 1 5.445 5.445 10.89
95 1 5.445 3.63 12.705
96 1 3.63 5.445 12.705
97 1 3.63 7.26 0.0
98 1 5.445 9.075 0.0
99 1 5.445 7.26 1.815
100 2 3.63 9.075 1.815
101 1 3.63 7.26 3.63
102 1 5.445 9.075 3.63
103 1 5.445 7.26 5.445
104 1 3.63 9.075 5.445
105 2 3.63 7.26 7.26
106 1 5.445 9.075 7.26
107 1 5.445 7.26 9.075
108 1 3.63 9.075 9.075
109 2 3.63 7.26 10.89
110 1 5.445 9.075 10.89
111 1 5.445 7.26 12.705
112 1 3.63 9.075 12.705
113 1 3.63 10.89 0.0
114 1 5.445 12.705 0.0
115 1 5.445 10.89 1.815
116 1 3.63 12.705 1.815
117 1 3.63 10.89 3.63
118 1 5.445 12.705 3.63
119 1 5.445 10.89 5.445
120 2 3.63 12.705 5.445
121 1 3.63 10.89 7.26
122 1 5.445 12.705 7.26
123 1 5.445 10.89 9.075
124 1 3.63 12.705 9.075
125 1 3.63 10.89 10.89
126 1 5.445 12.705 10.89
127 1 5.445 10.89 12.705
128 1 3.63 12.705 12.705
129 1 7.26 0.0 0.0
130 2 9.075 1.815 0.0
131 1 9.075 0.0 1.815
132 1 7.26 1.815 1.815
133 1 7.26 0.0 3.63
134 1 9.075 1.815 3.63
135 1 9.075 0.0 5.445
136 1 7.26 1.815 5.445
137 1 7.26 0.0 7.26
138 1 9.075 1.815 7.26
139 1 9.075 0.0 9.075
140 2 7.26 1.815 9.075
141 1 7.26 0.0 10.89
142 1 9.075 1.815 10.89
143 1 9.075 0.0 12.705
144 1 7.26 1.815 12.705
145 1 7.26 3.63 0.0
146 1 9.075 5.445 0.0
147 2 9.075 3.63 1.815
148 1 7.26 5.445 1.815
149 1 7.26 3.63 3.63
150 1 9.075 5.445 3.63
151 2 9.075 3.63 5.445
152 1 7.26 5.445 5.445
153 1 7.26 3.63 7.26
154 1 9.075 5.445 7.26
155 1 9.075 3.63 9.075
156 1 7.26 5.445 9.075
157 2 7.26 3.63 10.89
158 1 9.075 5.445 10.89
159 1 9.075 3.63 12.705
160 2 7.26 5.445 12.705
161 1 7.26 7.26 0.0
162 1 9.075 9.075 0.0
163 1 9.075 7.26 1.815
164 1 7.26 9.075 1.815
165 1 7.26 7.26 3.63
166 1 9.075 9.075 3.63
167 1 9.075 7.26 5.445
168 1 7.26 9.075 5.445
169 1 7.26 7.26 7.26
170 1 9.075 9.075 7.26
171 1 9.075 7.26 9.075
172 1 7.26 9.075 9.075
173 2 7.26 7.26 10.89
174 1 9.075 9.075 10.89
175 2 9.075 7.26 12.705
176 2 7.26 9.075 12.705
177 1 7.26 10.89 0.0
178 1 9.075 12.705 0.0
179 1 9.075 10.89 1.815
180 1 7.26 12.705 1.815
181 1 7.26 10.89 3.63
182 1 9.075 12.705 3.63
183 1 9.075 10.89 5.445
184 2 7.26 12.705 5.445
185 1 7.26 10.89 7.26
186 1 9.075 12.705 7.26
187 1 9.075 10.89 9.075
188 1 7.26 12.705 9.075
189 1 7.26 10.89 10.89
190 1 9.075 12.705 10.89
191 1 9.075 10.89 12.705
192 1 7.26 12.705 12.705
193 1 10.89 0.0 0.0
194 1 12.705 1.815 0.0
195 1 12.705 0.0 1.815
196 1 10.89 1.815 1.815
197 1 10.89 0.0 3.63
198 1 12.705 1.815 3.63
199 1 12.705 0.0 5.445
200 1 10.89 1.815 5.445
201 1 10.89 0.0 7.26
202 1 12.705 1.815 7.26
203 2 12.705 0.0 9.075
204 1 10.89 1.815 9.075
205 1 10.89 0.0 10.89
206 1 12.705 1.815 10.89
207 1 12.705 0.0 12.705
208 1 10.89 1.815 12.705
209 2 10.89 3.63 0.0
210 1 12.705 5.445 0.0
211 2 12.705 3.63 1.815
212 1 10.89 5.445 1.815
213 1 10.89 3.63 3.63
214 1 12.705 5.445 3.63
215 1 12.705 3.63 5.445
216 1 10.89 5.445 5.445
217 1 10.89 3.63 7.26
218 1 12.705 5.445 7.26
219 1 12.705 3.63 9.075
220 1 10.89 5.445 9.075
221 1 10.89 3.63 10.89
222 1 12.705 5.445 10.89
223 1 12.705 3.63 12.705
224 1 10.89 5.445 12.705
225 1 10.89 7.26 0.0
226 1 12.705 9.075 0.0
227 2 12.705 7.26 1.815
228 1 10.89 9.075 1.815
229 1 10.89 7.26 3.63
230 2 12.705 9.075 3.63
231 1 12.705 7.26 5.445
232 1 10.89 9.075 5.445
233 1 10.89 7.26 7.26
234 1 12.705 9.075 7.26
235 1 12.705 7.26 9.075
236 1 10.89 9.075 9.075
237 1 10.89 7.26 10.89
238 2 12.705 9.075 10.89
239 2 12.705 7.26 12.705
240 2 10.89 9.075 12.705
241 1 10.89 10.89 0.0
242 1 12.705 12.705 0.0
243 1 12.705 10.89 1.815
244 1 10.89 12.705 1.815
245 1 10.89 10.89 3.63
246 1 12.705 12.705 3.63
247 1 12.705 10.89 5.445
248 1 10.89 12.705 5.445
249 1 10.89 10.89 7.26
250 1 12.705 12.705 7.26
251 1 12.705 10.89 9.075
252 1 10.89 12.705 9.075
253 1 10.89 10.89 10.89
254 2 12.705 12.705 10.89
255 1 12.705 10.89 12.705
256 1 10.89 12.705 12.705
