CuNi atom datafile for lammps scripts 

500 atoms
2 atom types
0.0 18.15 xlo xhi
0.0 18.15 ylo yhi
0.0 18.15 zlo zhi
0.0 0.0 0.0 xy xz yz

Atoms

1 1 0.0 0.0 0.0
2 1 1.815 1.815 0.0
3 1 1.815 0.0 1.815
4 1 0.0 1.815 1.815
5 1 0.0 0.0 3.63
6 2 1.815 1.815 3.63
7 1 1.815 0.0 5.445
8 1 0.0 1.815 5.445
9 1 0.0 0.0 7.26
10 1 1.815 1.815 7.26
11 1 1.815 0.0 9.075
12 2 0.0 1.815 9.075
13 2 0.0 0.0 10.89
14 1 1.815 1.815 10.89
15 1 1.815 0.0 12.705
16 1 0.0 1.815 12.705
17 1 0.0 0.0 14.52
18 1 1.815 1.815 14.52
19 2 1.815 0.0 16.335
20 2 0.0 1.815 16.335
21 2 0.0 3.63 0.0
22 2 1.815 5.445 0.0
23 2 1.815 3.63 1.815
24 1 0.0 5.445 1.815
25 1 0.0 3.63 3.63
26 1 1.815 5.445 3.63
27 1 1.815 3.63 5.445
28 1 0.0 5.445 5.445
29 1 0.0 3.63 7.26
30 2 1.815 5.445 7.26
31 1 1.815 3.63 9.075
32 1 0.0 5.445 9.075
33 1 0.0 3.63 10.89
34 1 1.815 5.445 10.89
35 1 1.815 3.63 12.705
36 2 0.0 5.445 12.705
37 1 0.0 3.63 14.52
38 1 1.815 5.445 14.52
39 2 1.815 3.63 16.335
40 1 0.0 5.445 16.335
41 1 0.0 7.26 0.0
42 1 1.815 9.075 0.0
43 1 1.815 7.26 1.815
44 1 0.0 9.075 1.815
45 1 0.0 7.26 3.63
46 2 1.815 9.075 3.63
47 2 1.815 7.26 5.445
48 2 0.0 9.075 5.445
49 2 0.0 7.26 7.26
50 1 1.815 9.075 7.26
51 1 1.815 7.26 9.075
52 2 0.0 9.075 9.075
53 2 0.0 7.26 10.89
54 2 1.815 9.075 10.89
55 1 1.815 7.26 12.705
56 1 0.0 9.075 12.705
57 1 0.0 7.26 14.52
58 1 1.815 9.075 14.52
59 1 1.815 7.26 16.335
60 1 0.0 9.075 16.335
61 1 0.0 10.89 0.0
62 1 1.815 12.705 0.0
63 1 1.815 10.89 1.815
64 1 0.0 12.705 1.815
65 2 0.0 10.89 3.63
66 1 1.815 12.705 3.63
67 1 1.815 10.89 5.445
68 1 0.0 12.705 5.445
69 1 0.0 10.89 7.26
70 1 1.815 12.705 7.26
71 1 1.815 10.89 9.075
72 1 0.0 12.705 9.075
73 1 0.0 10.89 10.89
74 1 1.815 12.705 10.89
75 2 1.815 10.89 12.705
76 1 0.0 12.705 12.705
77 1 0.0 10.89 14.52
78 2 1.815 12.705 14.52
79 1 1.815 10.89 16.335
80 1 0.0 12.705 16.335
81 1 0.0 14.52 0.0
82 1 1.815 16.335 0.0
83 1 1.815 14.52 1.815
84 2 0.0 16.335 1.815
85 2 0.0 14.52 3.63
86 1 1.815 16.335 3.63
87 1 1.815 14.52 5.445
88 1 0.0 16.335 5.445
89 1 0.0 14.52 7.26
90 1 1.815 16.335 7.26
91 2 1.815 14.52 9.075
92 1 0.0 16.335 9.075
93 2 0.0 14.52 10.89
94 2 1.815 16.335 10.89
95 1 1.815 14.52 12.705
96 1 0.0 16.335 12.705
97 1 0.0 14.52 14.52
98 2 1.815 16.335 14.52
99 1 1.815 14.52 16.335
100 2 0.0 16.335 16.335
101 1 3.63 0.0 0.0
102 1 5.445 1.815 0.0
103 2 5.445 0.0 1.815
104 1 3.63 1.815 1.815
105 1 3.63 0.0 3.63
106 2 5.445 1.815 3.63
107 2 5.445 0.0 5.445
108 1 3.63 1.815 5.445
109 2 3.63 0.0 7.26
110 1 5.445 1.815 7.26
111 2 5.445 0.0 9.075
112 1 3.63 1.815 9.075
113 2 3.63 0.0 10.89
114 1 5.445 1.815 10.89
115 1 5.445 0.0 12.705
116 1 3.63 1.815 12.705
117 1 3.63 0.0 14.52
118 1 5.445 1.815 14.52
119 2 5.445 0.0 16.335
120 1 3.63 1.815 16.335
121 2 3.63 3.63 0.0
122 1 5.445 5.445 0.0
123 2 5.445 3.63 1.815
124 2 3.63 5.445 1.815
125 1 3.63 3.63 3.63
126 1 5.445 5.445 3.63
127 2 5.445 3.63 5.445
128 1 3.63 5.445 5.445
129 1 3.63 3.63 7.26
130 1 5.445 5.445 7.26
131 1 5.445 3.63 9.075
132 2 3.63 5.445 9.075
133 1 3.63 3.63 10.89
134 1 5.445 5.445 10.89
135 2 5.445 3.63 12.705
136 2 3.63 5.445 12.705
137 2 3.63 3.63 14.52
138 2 5.445 5.445 14.52
139 2 5.445 3.63 16.335
140 1 3.63 5.445 16.335
141 2 3.63 7.26 0.0
142 1 5.445 9.075 0.0
143 2 5.445 7.26 1.815
144 2 3.63 9.075 1.815
145 2 3.63 7.26 3.63
146 1 5.445 9.075 3.63
147 1 5.445 7.26 5.445
148 1 3.63 9.075 5.445
149 1 3.63 7.26 7.26
150 1 5.445 9.075 7.26
151 2 5.445 7.26 9.075
152 1 3.63 9.075 9.075
153 1 3.63 7.26 10.89
154 1 5.445 9.075 10.89
155 2 5.445 7.26 12.705
156 1 3.63 9.075 12.705
157 2 3.63 7.26 14.52
158 2 5.445 9.075 14.52
159 1 5.445 7.26 16.335
160 1 3.63 9.075 16.335
161 1 3.63 10.89 0.0
162 1 5.445 12.705 0.0
163 1 5.445 10.89 1.815
164 1 3.63 12.705 1.815
165 2 3.63 10.89 3.63
166 1 5.445 12.705 3.63
167 2 5.445 10.89 5.445
168 1 3.63 12.705 5.445
169 1 3.63 10.89 7.26
170 1 5.445 12.705 7.26
171 1 5.445 10.89 9.075
172 1 3.63 12.705 9.075
173 1 3.63 10.89 10.89
174 1 5.445 12.705 10.89
175 1 5.445 10.89 12.705
176 1 3.63 12.705 12.705
177 1 3.63 10.89 14.52
178 2 5.445 12.705 14.52
179 1 5.445 10.89 16.335
180 1 3.63 12.705 16.335
181 2 3.63 14.52 0.0
182 1 5.445 16.335 0.0
183 1 5.445 14.52 1.815
184 2 3.63 16.335 1.815
185 1 3.63 14.52 3.63
186 1 5.445 16.335 3.63
187 2 5.445 14.52 5.445
188 2 3.63 16.335 5.445
189 1 3.63 14.52 7.26
190 1 5.445 16.335 7.26
191 1 5.445 14.52 9.075
192 1 3.63 16.335 9.075
193 1 3.63 14.52 10.89
194 1 5.445 16.335 10.89
195 1 5.445 14.52 12.705
196 1 3.63 16.335 12.705
197 1 3.63 14.52 14.52
198 2 5.445 16.335 14.52
199 2 5.445 14.52 16.335
200 1 3.63 16.335 16.335
201 1 7.26 0.0 0.0
202 1 9.075 1.815 0.0
203 1 9.075 0.0 1.815
204 1 7.26 1.815 1.815
205 1 7.26 0.0 3.63
206 2 9.075 1.815 3.63
207 1 9.075 0.0 5.445
208 1 7.26 1.815 5.445
209 1 7.26 0.0 7.26
210 1 9.075 1.815 7.26
211 1 9.075 0.0 9.075
212 2 7.26 1.815 9.075
213 1 7.26 0.0 10.89
214 2 9.075 1.815 10.89
215 2 9.075 0.0 12.705
216 1 7.26 1.815 12.705
217 2 7.26 0.0 14.52
218 1 9.075 1.815 14.52
219 2 9.075 0.0 16.335
220 1 7.26 1.815 16.335
221 1 7.26 3.63 0.0
222 1 9.075 5.445 0.0
223 2 9.075 3.63 1.815
224 2 7.26 5.445 1.815
225 1 7.26 3.63 3.63
226 1 9.075 5.445 3.63
227 1 9.075 3.63 5.445
228 2 7.26 5.445 5.445
229 2 7.26 3.63 7.26
230 1 9.075 5.445 7.26
231 1 9.075 3.63 9.075
232 1 7.26 5.445 9.075
233 1 7.26 3.63 10.89
234 1 9.075 5.445 10.89
235 2 9.075 3.63 12.705
236 1 7.26 5.445 12.705
237 1 7.26 3.63 14.52
238 1 9.075 5.445 14.52
239 2 9.075 3.63 16.335
240 1 7.26 5.445 16.335
241 1 7.26 7.26 0.0
242 1 9.075 9.075 0.0
243 1 9.075 7.26 1.815
244 2 7.26 9.075 1.815
245 1 7.26 7.26 3.63
246 2 9.075 9.075 3.63
247 1 9.075 7.26 5.445
248 2 7.26 9.075 5.445
249 1 7.26 7.26 7.26
250 1 9.075 9.075 7.26
251 1 9.075 7.26 9.075
252 2 7.26 9.075 9.075
253 1 7.26 7.26 10.89
254 1 9.075 9.075 10.89
255 2 9.075 7.26 12.705
256 2 7.26 9.075 12.705
257 1 7.26 7.26 14.52
258 1 9.075 9.075 14.52
259 1 9.075 7.26 16.335
260 2 7.26 9.075 16.335
261 2 7.26 10.89 0.0
262 2 9.075 12.705 0.0
263 1 9.075 10.89 1.815
264 1 7.26 12.705 1.815
265 2 7.26 10.89 3.63
266 2 9.075 12.705 3.63
267 1 9.075 10.89 5.445
268 2 7.26 12.705 5.445
269 1 7.26 10.89 7.26
270 1 9.075 12.705 7.26
271 2 9.075 10.89 9.075
272 1 7.26 12.705 9.075
273 1 7.26 10.89 10.89
274 1 9.075 12.705 10.89
275 2 9.075 10.89 12.705
276 2 7.26 12.705 12.705
277 1 7.26 10.89 14.52
278 1 9.075 12.705 14.52
279 2 9.075 10.89 16.335
280 1 7.26 12.705 16.335
281 1 7.26 14.52 0.0
282 1 9.075 16.335 0.0
283 1 9.075 14.52 1.815
284 1 7.26 16.335 1.815
285 2 7.26 14.52 3.63
286 1 9.075 16.335 3.63
287 1 9.075 14.52 5.445
288 1 7.26 16.335 5.445
289 2 7.26 14.52 7.26
290 1 9.075 16.335 7.26
291 1 9.075 14.52 9.075
292 1 7.26 16.335 9.075
293 1 7.26 14.52 10.89
294 1 9.075 16.335 10.89
295 1 9.075 14.52 12.705
296 2 7.26 16.335 12.705
297 1 7.26 14.52 14.52
298 1 9.075 16.335 14.52
299 2 9.075 14.52 16.335
300 2 7.26 16.335 16.335
301 1 10.89 0.0 0.0
302 1 12.705 1.815 0.0
303 1 12.705 0.0 1.815
304 1 10.89 1.815 1.815
305 2 10.89 0.0 3.63
306 2 12.705 1.815 3.63
307 1 12.705 0.0 5.445
308 2 10.89 1.815 5.445
309 1 10.89 0.0 7.26
310 2 12.705 1.815 7.26
311 2 12.705 0.0 9.075
312 2 10.89 1.815 9.075
313 1 10.89 0.0 10.89
314 1 12.705 1.815 10.89
315 1 12.705 0.0 12.705
316 1 10.89 1.815 12.705
317 2 10.89 0.0 14.52
318 2 12.705 1.815 14.52
319 2 12.705 0.0 16.335
320 1 10.89 1.815 16.335
321 1 10.89 3.63 0.0
322 1 12.705 5.445 0.0
323 1 12.705 3.63 1.815
324 1 10.89 5.445 1.815
325 1 10.89 3.63 3.63
326 2 12.705 5.445 3.63
327 1 12.705 3.63 5.445
328 1 10.89 5.445 5.445
329 1 10.89 3.63 7.26
330 1 12.705 5.445 7.26
331 1 12.705 3.63 9.075
332 1 10.89 5.445 9.075
333 1 10.89 3.63 10.89
334 1 12.705 5.445 10.89
335 2 12.705 3.63 12.705
336 1 10.89 5.445 12.705
337 2 10.89 3.63 14.52
338 1 12.705 5.445 14.52
339 1 12.705 3.63 16.335
340 1 10.89 5.445 16.335
341 1 10.89 7.26 0.0
342 1 12.705 9.075 0.0
343 2 12.705 7.26 1.815
344 1 10.89 9.075 1.815
345 1 10.89 7.26 3.63
346 1 12.705 9.075 3.63
347 2 12.705 7.26 5.445
348 1 10.89 9.075 5.445
349 1 10.89 7.26 7.26
350 1 12.705 9.075 7.26
351 1 12.705 7.26 9.075
352 2 10.89 9.075 9.075
353 1 10.89 7.26 10.89
354 1 12.705 9.075 10.89
355 1 12.705 7.26 12.705
356 1 10.89 9.075 12.705
357 2 10.89 7.26 14.52
358 1 12.705 9.075 14.52
359 1 12.705 7.26 16.335
360 1 10.89 9.075 16.335
361 1 10.89 10.89 0.0
362 2 12.705 12.705 0.0
363 1 12.705 10.89 1.815
364 1 10.89 12.705 1.815
365 1 10.89 10.89 3.63
366 1 12.705 12.705 3.63
367 1 12.705 10.89 5.445
368 1 10.89 12.705 5.445
369 2 10.89 10.89 7.26
370 1 12.705 12.705 7.26
371 1 12.705 10.89 9.075
372 1 10.89 12.705 9.075
373 2 10.89 10.89 10.89
374 2 12.705 12.705 10.89
375 2 12.705 10.89 12.705
376 1 10.89 12.705 12.705
377 2 10.89 10.89 14.52
378 1 12.705 12.705 14.52
379 2 12.705 10.89 16.335
380 2 10.89 12.705 16.335
381 1 10.89 14.52 0.0
382 2 12.705 16.335 0.0
383 1 12.705 14.52 1.815
384 1 10.89 16.335 1.815
385 1 10.89 14.52 3.63
386 1 12.705 16.335 3.63
387 1 12.705 14.52 5.445
388 1 10.89 16.335 5.445
389 1 10.89 14.52 7.26
390 1 12.705 16.335 7.26
391 2 12.705 14.52 9.075
392 1 10.89 16.335 9.075
393 2 10.89 14.52 10.89
394 1 12.705 16.335 10.89
395 1 12.705 14.52 12.705
396 1 10.89 16.335 12.705
397 1 10.89 14.52 14.52
398 1 12.705 16.335 14.52
399 1 12.705 14.52 16.335
400 1 10.89 16.335 16.335
401 1 14.52 0.0 0.0
402 1 16.335 1.815 0.0
403 1 16.335 0.0 1.815
404 1 14.52 1.815 1.815
405 1 14.52 0.0 3.63
406 1 16.335 1.815 3.63
407 2 16.335 0.0 5.445
408 2 14.52 1.815 5.445
409 1 14.52 0.0 7.26
410 2 16.335 1.815 7.26
411 2 16.335 0.0 9.075
412 1 14.52 1.815 9.075
413 1 14.52 0.0 10.89
414 2 16.335 1.815 10.89
415 1 16.335 0.0 12.705
416 2 14.52 1.815 12.705
417 1 14.52 0.0 14.52
418 2 16.335 1.815 14.52
419 1 16.335 0.0 16.335
420 1 14.52 1.815 16.335
421 1 14.52 3.63 0.0
422 2 16.335 5.445 0.0
423 1 16.335 3.63 1.815
424 1 14.52 5.445 1.815
425 1 14.52 3.63 3.63
426 1 16.335 5.445 3.63
427 1 16.335 3.63 5.445
428 1 14.52 5.445 5.445
429 2 14.52 3.63 7.26
430 1 16.335 5.445 7.26
431 2 16.335 3.63 9.075
432 2 14.52 5.445 9.075
433 1 14.52 3.63 10.89
434 1 16.335 5.445 10.89
435 1 16.335 3.63 12.705
436 2 14.52 5.445 12.705
437 1 14.52 3.63 14.52
438 1 16.335 5.445 14.52
439 1 16.335 3.63 16.335
440 2 14.52 5.445 16.335
441 1 14.52 7.26 0.0
442 1 16.335 9.075 0.0
443 1 16.335 7.26 1.815
444 2 14.52 9.075 1.815
445 2 14.52 7.26 3.63
446 1 16.335 9.075 3.63
447 1 16.335 7.26 5.445
448 1 14.52 9.075 5.445
449 1 14.52 7.26 7.26
450 1 16.335 9.075 7.26
451 1 16.335 7.26 9.075
452 1 14.52 9.075 9.075
453 2 14.52 7.26 10.89
454 1 16.335 9.075 10.89
455 2 16.335 7.26 12.705
456 1 14.52 9.075 12.705
457 1 14.52 7.26 14.52
458 1 16.335 9.075 14.52
459 2 16.335 7.26 16.335
460 1 14.52 9.075 16.335
461 1 14.52 10.89 0.0
462 1 16.335 12.705 0.0
463 1 16.335 10.89 1.815
464 2 14.52 12.705 1.815
465 2 14.52 10.89 3.63
466 2 16.335 12.705 3.63
467 2 16.335 10.89 5.445
468 2 14.52 12.705 5.445
469 1 14.52 10.89 7.26
470 1 16.335 12.705 7.26
471 1 16.335 10.89 9.075
472 1 14.52 12.705 9.075
473 1 14.52 10.89 10.89
474 1 16.335 12.705 10.89
475 1 16.335 10.89 12.705
476 1 14.52 12.705 12.705
477 1 14.52 10.89 14.52
478 2 16.335 12.705 14.52
479 1 16.335 10.89 16.335
480 2 14.52 12.705 16.335
481 1 14.52 14.52 0.0
482 1 16.335 16.335 0.0
483 1 16.335 14.52 1.815
484 2 14.52 16.335 1.815
485 1 14.52 14.52 3.63
486 2 16.335 16.335 3.63
487 1 16.335 14.52 5.445
488 1 14.52 16.335 5.445
489 1 14.52 14.52 7.26
490 2 16.335 16.335 7.26
491 1 16.335 14.52 9.075
492 1 14.52 16.335 9.075
493 1 14.52 14.52 10.89
494 2 16.335 16.335 10.89
495 1 16.335 14.52 12.705
496 1 14.52 16.335 12.705
497 1 14.52 14.52 14.52
498 2 16.335 16.335 14.52
499 2 16.335 14.52 16.335
500 1 14.52 16.335 16.335
