CuNi atom datafile for lammps scripts 

864 atoms
2 atom types
0.0 21.78 xlo xhi
0.0 21.78 ylo yhi
0.0 21.78 zlo zhi
0.0 0.0 0.0 xy xz yz

Atoms

1 2 0.0 0.0 0.0
2 2 1.815 1.815 0.0
3 2 1.815 0.0 1.815
4 2 0.0 1.815 1.815
5 2 0.0 0.0 3.63
6 2 1.815 1.815 3.63
7 2 1.815 0.0 5.445
8 2 0.0 1.815 5.445
9 2 0.0 0.0 7.26
10 2 1.815 1.815 7.26
11 2 1.815 0.0 9.075
12 2 0.0 1.815 9.075
13 2 0.0 0.0 10.89
14 2 1.815 1.815 10.89
15 2 1.815 0.0 12.705
16 2 0.0 1.815 12.705
17 1 0.0 0.0 14.52
18 2 1.815 1.815 14.52
19 2 1.815 0.0 16.335
20 2 0.0 1.815 16.335
21 2 0.0 0.0 18.15
22 2 1.815 1.815 18.15
23 2 1.815 0.0 19.965
24 2 0.0 1.815 19.965
25 2 0.0 3.63 0.0
26 2 1.815 5.445 0.0
27 1 1.815 3.63 1.815
28 2 0.0 5.445 1.815
29 2 0.0 3.63 3.63
30 2 1.815 5.445 3.63
31 2 1.815 3.63 5.445
32 2 0.0 5.445 5.445
33 2 0.0 3.63 7.26
34 2 1.815 5.445 7.26
35 2 1.815 3.63 9.075
36 2 0.0 5.445 9.075
37 2 0.0 3.63 10.89
38 2 1.815 5.445 10.89
39 2 1.815 3.63 12.705
40 2 0.0 5.445 12.705
41 2 0.0 3.63 14.52
42 2 1.815 5.445 14.52
43 2 1.815 3.63 16.335
44 2 0.0 5.445 16.335
45 2 0.0 3.63 18.15
46 2 1.815 5.445 18.15
47 2 1.815 3.63 19.965
48 2 0.0 5.445 19.965
49 2 0.0 7.26 0.0
50 2 1.815 9.075 0.0
51 2 1.815 7.26 1.815
52 2 0.0 9.075 1.815
53 2 0.0 7.26 3.63
54 2 1.815 9.075 3.63
55 2 1.815 7.26 5.445
56 2 0.0 9.075 5.445
57 2 0.0 7.26 7.26
58 2 1.815 9.075 7.26
59 2 1.815 7.26 9.075
60 2 0.0 9.075 9.075
61 2 0.0 7.26 10.89
62 2 1.815 9.075 10.89
63 2 1.815 7.26 12.705
64 2 0.0 9.075 12.705
65 2 0.0 7.26 14.52
66 2 1.815 9.075 14.52
67 2 1.815 7.26 16.335
68 2 0.0 9.075 16.335
69 2 0.0 7.26 18.15
70 2 1.815 9.075 18.15
71 2 1.815 7.26 19.965
72 2 0.0 9.075 19.965
73 2 0.0 10.89 0.0
74 2 1.815 12.705 0.0
75 2 1.815 10.89 1.815
76 2 0.0 12.705 1.815
77 1 0.0 10.89 3.63
78 2 1.815 12.705 3.63
79 2 1.815 10.89 5.445
80 2 0.0 12.705 5.445
81 2 0.0 10.89 7.26
82 2 1.815 12.705 7.26
83 2 1.815 10.89 9.075
84 2 0.0 12.705 9.075
85 2 0.0 10.89 10.89
86 2 1.815 12.705 10.89
87 2 1.815 10.89 12.705
88 2 0.0 12.705 12.705
89 2 0.0 10.89 14.52
90 1 1.815 12.705 14.52
91 2 1.815 10.89 16.335
92 2 0.0 12.705 16.335
93 1 0.0 10.89 18.15
94 2 1.815 12.705 18.15
95 2 1.815 10.89 19.965
96 2 0.0 12.705 19.965
97 2 0.0 14.52 0.0
98 2 1.815 16.335 0.0
99 2 1.815 14.52 1.815
100 2 0.0 16.335 1.815
101 2 0.0 14.52 3.63
102 2 1.815 16.335 3.63
103 2 1.815 14.52 5.445
104 1 0.0 16.335 5.445
105 2 0.0 14.52 7.26
106 2 1.815 16.335 7.26
107 2 1.815 14.52 9.075
108 2 0.0 16.335 9.075
109 1 0.0 14.52 10.89
110 2 1.815 16.335 10.89
111 2 1.815 14.52 12.705
112 2 0.0 16.335 12.705
113 2 0.0 14.52 14.52
114 2 1.815 16.335 14.52
115 1 1.815 14.52 16.335
116 2 0.0 16.335 16.335
117 2 0.0 14.52 18.15
118 2 1.815 16.335 18.15
119 2 1.815 14.52 19.965
120 2 0.0 16.335 19.965
121 2 0.0 18.15 0.0
122 2 1.815 19.965 0.0
123 2 1.815 18.15 1.815
124 2 0.0 19.965 1.815
125 1 0.0 18.15 3.63
126 2 1.815 19.965 3.63
127 2 1.815 18.15 5.445
128 2 0.0 19.965 5.445
129 2 0.0 18.15 7.26
130 2 1.815 19.965 7.26
131 2 1.815 18.15 9.075
132 2 0.0 19.965 9.075
133 2 0.0 18.15 10.89
134 2 1.815 19.965 10.89
135 2 1.815 18.15 12.705
136 2 0.0 19.965 12.705
137 2 0.0 18.15 14.52
138 2 1.815 19.965 14.52
139 2 1.815 18.15 16.335
140 2 0.0 19.965 16.335
141 2 0.0 18.15 18.15
142 2 1.815 19.965 18.15
143 2 1.815 18.15 19.965
144 2 0.0 19.965 19.965
145 2 3.63 0.0 0.0
146 2 5.445 1.815 0.0
147 2 5.445 0.0 1.815
148 2 3.63 1.815 1.815
149 2 3.63 0.0 3.63
150 2 5.445 1.815 3.63
151 2 5.445 0.0 5.445
152 2 3.63 1.815 5.445
153 2 3.63 0.0 7.26
154 2 5.445 1.815 7.26
155 2 5.445 0.0 9.075
156 2 3.63 1.815 9.075
157 2 3.63 0.0 10.89
158 2 5.445 1.815 10.89
159 2 5.445 0.0 12.705
160 2 3.63 1.815 12.705
161 1 3.63 0.0 14.52
162 2 5.445 1.815 14.52
163 2 5.445 0.0 16.335
164 2 3.63 1.815 16.335
165 2 3.63 0.0 18.15
166 2 5.445 1.815 18.15
167 2 5.445 0.0 19.965
168 2 3.63 1.815 19.965
169 2 3.63 3.63 0.0
170 1 5.445 5.445 0.0
171 2 5.445 3.63 1.815
172 2 3.63 5.445 1.815
173 2 3.63 3.63 3.63
174 2 5.445 5.445 3.63
175 2 5.445 3.63 5.445
176 2 3.63 5.445 5.445
177 2 3.63 3.63 7.26
178 1 5.445 5.445 7.26
179 2 5.445 3.63 9.075
180 2 3.63 5.445 9.075
181 2 3.63 3.63 10.89
182 2 5.445 5.445 10.89
183 1 5.445 3.63 12.705
184 2 3.63 5.445 12.705
185 2 3.63 3.63 14.52
186 2 5.445 5.445 14.52
187 2 5.445 3.63 16.335
188 2 3.63 5.445 16.335
189 2 3.63 3.63 18.15
190 2 5.445 5.445 18.15
191 2 5.445 3.63 19.965
192 2 3.63 5.445 19.965
193 2 3.63 7.26 0.0
194 2 5.445 9.075 0.0
195 2 5.445 7.26 1.815
196 2 3.63 9.075 1.815
197 2 3.63 7.26 3.63
198 2 5.445 9.075 3.63
199 2 5.445 7.26 5.445
200 2 3.63 9.075 5.445
201 2 3.63 7.26 7.26
202 1 5.445 9.075 7.26
203 2 5.445 7.26 9.075
204 2 3.63 9.075 9.075
205 2 3.63 7.26 10.89
206 2 5.445 9.075 10.89
207 2 5.445 7.26 12.705
208 2 3.63 9.075 12.705
209 2 3.63 7.26 14.52
210 2 5.445 9.075 14.52
211 2 5.445 7.26 16.335
212 1 3.63 9.075 16.335
213 1 3.63 7.26 18.15
214 2 5.445 9.075 18.15
215 1 5.445 7.26 19.965
216 2 3.63 9.075 19.965
217 1 3.63 10.89 0.0
218 2 5.445 12.705 0.0
219 2 5.445 10.89 1.815
220 2 3.63 12.705 1.815
221 2 3.63 10.89 3.63
222 2 5.445 12.705 3.63
223 2 5.445 10.89 5.445
224 1 3.63 12.705 5.445
225 1 3.63 10.89 7.26
226 2 5.445 12.705 7.26
227 2 5.445 10.89 9.075
228 2 3.63 12.705 9.075
229 2 3.63 10.89 10.89
230 2 5.445 12.705 10.89
231 2 5.445 10.89 12.705
232 2 3.63 12.705 12.705
233 2 3.63 10.89 14.52
234 1 5.445 12.705 14.52
235 2 5.445 10.89 16.335
236 2 3.63 12.705 16.335
237 2 3.63 10.89 18.15
238 1 5.445 12.705 18.15
239 2 5.445 10.89 19.965
240 2 3.63 12.705 19.965
241 2 3.63 14.52 0.0
242 2 5.445 16.335 0.0
243 2 5.445 14.52 1.815
244 2 3.63 16.335 1.815
245 2 3.63 14.52 3.63
246 1 5.445 16.335 3.63
247 2 5.445 14.52 5.445
248 2 3.63 16.335 5.445
249 2 3.63 14.52 7.26
250 2 5.445 16.335 7.26
251 2 5.445 14.52 9.075
252 2 3.63 16.335 9.075
253 2 3.63 14.52 10.89
254 2 5.445 16.335 10.89
255 2 5.445 14.52 12.705
256 2 3.63 16.335 12.705
257 2 3.63 14.52 14.52
258 2 5.445 16.335 14.52
259 2 5.445 14.52 16.335
260 2 3.63 16.335 16.335
261 2 3.63 14.52 18.15
262 2 5.445 16.335 18.15
263 2 5.445 14.52 19.965
264 2 3.63 16.335 19.965
265 2 3.63 18.15 0.0
266 2 5.445 19.965 0.0
267 2 5.445 18.15 1.815
268 2 3.63 19.965 1.815
269 2 3.63 18.15 3.63
270 2 5.445 19.965 3.63
271 2 5.445 18.15 5.445
272 1 3.63 19.965 5.445
273 2 3.63 18.15 7.26
274 2 5.445 19.965 7.26
275 2 5.445 18.15 9.075
276 2 3.63 19.965 9.075
277 1 3.63 18.15 10.89
278 2 5.445 19.965 10.89
279 2 5.445 18.15 12.705
280 2 3.63 19.965 12.705
281 2 3.63 18.15 14.52
282 2 5.445 19.965 14.52
283 2 5.445 18.15 16.335
284 2 3.63 19.965 16.335
285 2 3.63 18.15 18.15
286 2 5.445 19.965 18.15
287 2 5.445 18.15 19.965
288 2 3.63 19.965 19.965
289 1 7.26 0.0 0.0
290 2 9.075 1.815 0.0
291 2 9.075 0.0 1.815
292 1 7.26 1.815 1.815
293 2 7.26 0.0 3.63
294 2 9.075 1.815 3.63
295 2 9.075 0.0 5.445
296 2 7.26 1.815 5.445
297 2 7.26 0.0 7.26
298 2 9.075 1.815 7.26
299 2 9.075 0.0 9.075
300 2 7.26 1.815 9.075
301 2 7.26 0.0 10.89
302 2 9.075 1.815 10.89
303 2 9.075 0.0 12.705
304 2 7.26 1.815 12.705
305 2 7.26 0.0 14.52
306 2 9.075 1.815 14.52
307 1 9.075 0.0 16.335
308 1 7.26 1.815 16.335
309 2 7.26 0.0 18.15
310 2 9.075 1.815 18.15
311 2 9.075 0.0 19.965
312 2 7.26 1.815 19.965
313 2 7.26 3.63 0.0
314 1 9.075 5.445 0.0
315 2 9.075 3.63 1.815
316 2 7.26 5.445 1.815
317 2 7.26 3.63 3.63
318 2 9.075 5.445 3.63
319 2 9.075 3.63 5.445
320 2 7.26 5.445 5.445
321 2 7.26 3.63 7.26
322 2 9.075 5.445 7.26
323 2 9.075 3.63 9.075
324 2 7.26 5.445 9.075
325 2 7.26 3.63 10.89
326 1 9.075 5.445 10.89
327 2 9.075 3.63 12.705
328 2 7.26 5.445 12.705
329 2 7.26 3.63 14.52
330 2 9.075 5.445 14.52
331 2 9.075 3.63 16.335
332 1 7.26 5.445 16.335
333 2 7.26 3.63 18.15
334 2 9.075 5.445 18.15
335 2 9.075 3.63 19.965
336 2 7.26 5.445 19.965
337 2 7.26 7.26 0.0
338 2 9.075 9.075 0.0
339 2 9.075 7.26 1.815
340 2 7.26 9.075 1.815
341 2 7.26 7.26 3.63
342 2 9.075 9.075 3.63
343 2 9.075 7.26 5.445
344 1 7.26 9.075 5.445
345 2 7.26 7.26 7.26
346 2 9.075 9.075 7.26
347 2 9.075 7.26 9.075
348 1 7.26 9.075 9.075
349 1 7.26 7.26 10.89
350 2 9.075 9.075 10.89
351 2 9.075 7.26 12.705
352 2 7.26 9.075 12.705
353 2 7.26 7.26 14.52
354 2 9.075 9.075 14.52
355 1 9.075 7.26 16.335
356 2 7.26 9.075 16.335
357 2 7.26 7.26 18.15
358 2 9.075 9.075 18.15
359 1 9.075 7.26 19.965
360 2 7.26 9.075 19.965
361 2 7.26 10.89 0.0
362 2 9.075 12.705 0.0
363 2 9.075 10.89 1.815
364 2 7.26 12.705 1.815
365 2 7.26 10.89 3.63
366 2 9.075 12.705 3.63
367 2 9.075 10.89 5.445
368 2 7.26 12.705 5.445
369 2 7.26 10.89 7.26
370 2 9.075 12.705 7.26
371 2 9.075 10.89 9.075
372 1 7.26 12.705 9.075
373 2 7.26 10.89 10.89
374 2 9.075 12.705 10.89
375 2 9.075 10.89 12.705
376 2 7.26 12.705 12.705
377 2 7.26 10.89 14.52
378 2 9.075 12.705 14.52
379 2 9.075 10.89 16.335
380 2 7.26 12.705 16.335
381 2 7.26 10.89 18.15
382 2 9.075 12.705 18.15
383 2 9.075 10.89 19.965
384 2 7.26 12.705 19.965
385 2 7.26 14.52 0.0
386 2 9.075 16.335 0.0
387 2 9.075 14.52 1.815
388 2 7.26 16.335 1.815
389 2 7.26 14.52 3.63
390 2 9.075 16.335 3.63
391 2 9.075 14.52 5.445
392 2 7.26 16.335 5.445
393 2 7.26 14.52 7.26
394 2 9.075 16.335 7.26
395 2 9.075 14.52 9.075
396 1 7.26 16.335 9.075
397 2 7.26 14.52 10.89
398 1 9.075 16.335 10.89
399 2 9.075 14.52 12.705
400 2 7.26 16.335 12.705
401 2 7.26 14.52 14.52
402 2 9.075 16.335 14.52
403 2 9.075 14.52 16.335
404 2 7.26 16.335 16.335
405 2 7.26 14.52 18.15
406 2 9.075 16.335 18.15
407 2 9.075 14.52 19.965
408 2 7.26 16.335 19.965
409 2 7.26 18.15 0.0
410 2 9.075 19.965 0.0
411 2 9.075 18.15 1.815
412 2 7.26 19.965 1.815
413 2 7.26 18.15 3.63
414 2 9.075 19.965 3.63
415 2 9.075 18.15 5.445
416 2 7.26 19.965 5.445
417 1 7.26 18.15 7.26
418 2 9.075 19.965 7.26
419 2 9.075 18.15 9.075
420 2 7.26 19.965 9.075
421 2 7.26 18.15 10.89
422 2 9.075 19.965 10.89
423 2 9.075 18.15 12.705
424 2 7.26 19.965 12.705
425 2 7.26 18.15 14.52
426 2 9.075 19.965 14.52
427 2 9.075 18.15 16.335
428 2 7.26 19.965 16.335
429 2 7.26 18.15 18.15
430 1 9.075 19.965 18.15
431 2 9.075 18.15 19.965
432 2 7.26 19.965 19.965
433 2 10.89 0.0 0.0
434 2 12.705 1.815 0.0
435 2 12.705 0.0 1.815
436 2 10.89 1.815 1.815
437 2 10.89 0.0 3.63
438 2 12.705 1.815 3.63
439 2 12.705 0.0 5.445
440 2 10.89 1.815 5.445
441 1 10.89 0.0 7.26
442 2 12.705 1.815 7.26
443 2 12.705 0.0 9.075
444 2 10.89 1.815 9.075
445 1 10.89 0.0 10.89
446 2 12.705 1.815 10.89
447 2 12.705 0.0 12.705
448 2 10.89 1.815 12.705
449 1 10.89 0.0 14.52
450 2 12.705 1.815 14.52
451 2 12.705 0.0 16.335
452 2 10.89 1.815 16.335
453 2 10.89 0.0 18.15
454 2 12.705 1.815 18.15
455 2 12.705 0.0 19.965
456 2 10.89 1.815 19.965
457 2 10.89 3.63 0.0
458 2 12.705 5.445 0.0
459 2 12.705 3.63 1.815
460 2 10.89 5.445 1.815
461 2 10.89 3.63 3.63
462 2 12.705 5.445 3.63
463 1 12.705 3.63 5.445
464 2 10.89 5.445 5.445
465 2 10.89 3.63 7.26
466 2 12.705 5.445 7.26
467 2 12.705 3.63 9.075
468 2 10.89 5.445 9.075
469 1 10.89 3.63 10.89
470 2 12.705 5.445 10.89
471 2 12.705 3.63 12.705
472 2 10.89 5.445 12.705
473 2 10.89 3.63 14.52
474 2 12.705 5.445 14.52
475 2 12.705 3.63 16.335
476 2 10.89 5.445 16.335
477 1 10.89 3.63 18.15
478 2 12.705 5.445 18.15
479 2 12.705 3.63 19.965
480 2 10.89 5.445 19.965
481 1 10.89 7.26 0.0
482 2 12.705 9.075 0.0
483 2 12.705 7.26 1.815
484 2 10.89 9.075 1.815
485 2 10.89 7.26 3.63
486 1 12.705 9.075 3.63
487 2 12.705 7.26 5.445
488 2 10.89 9.075 5.445
489 2 10.89 7.26 7.26
490 2 12.705 9.075 7.26
491 2 12.705 7.26 9.075
492 2 10.89 9.075 9.075
493 2 10.89 7.26 10.89
494 2 12.705 9.075 10.89
495 2 12.705 7.26 12.705
496 2 10.89 9.075 12.705
497 2 10.89 7.26 14.52
498 2 12.705 9.075 14.52
499 2 12.705 7.26 16.335
500 2 10.89 9.075 16.335
501 2 10.89 7.26 18.15
502 2 12.705 9.075 18.15
503 2 12.705 7.26 19.965
504 2 10.89 9.075 19.965
505 2 10.89 10.89 0.0
506 1 12.705 12.705 0.0
507 1 12.705 10.89 1.815
508 2 10.89 12.705 1.815
509 2 10.89 10.89 3.63
510 2 12.705 12.705 3.63
511 1 12.705 10.89 5.445
512 2 10.89 12.705 5.445
513 2 10.89 10.89 7.26
514 2 12.705 12.705 7.26
515 2 12.705 10.89 9.075
516 2 10.89 12.705 9.075
517 2 10.89 10.89 10.89
518 2 12.705 12.705 10.89
519 2 12.705 10.89 12.705
520 2 10.89 12.705 12.705
521 2 10.89 10.89 14.52
522 2 12.705 12.705 14.52
523 2 12.705 10.89 16.335
524 2 10.89 12.705 16.335
525 2 10.89 10.89 18.15
526 2 12.705 12.705 18.15
527 2 12.705 10.89 19.965
528 2 10.89 12.705 19.965
529 2 10.89 14.52 0.0
530 2 12.705 16.335 0.0
531 1 12.705 14.52 1.815
532 2 10.89 16.335 1.815
533 2 10.89 14.52 3.63
534 2 12.705 16.335 3.63
535 2 12.705 14.52 5.445
536 2 10.89 16.335 5.445
537 2 10.89 14.52 7.26
538 2 12.705 16.335 7.26
539 2 12.705 14.52 9.075
540 2 10.89 16.335 9.075
541 2 10.89 14.52 10.89
542 2 12.705 16.335 10.89
543 2 12.705 14.52 12.705
544 2 10.89 16.335 12.705
545 2 10.89 14.52 14.52
546 2 12.705 16.335 14.52
547 2 12.705 14.52 16.335
548 2 10.89 16.335 16.335
549 2 10.89 14.52 18.15
550 1 12.705 16.335 18.15
551 2 12.705 14.52 19.965
552 2 10.89 16.335 19.965
553 2 10.89 18.15 0.0
554 2 12.705 19.965 0.0
555 2 12.705 18.15 1.815
556 2 10.89 19.965 1.815
557 1 10.89 18.15 3.63
558 2 12.705 19.965 3.63
559 2 12.705 18.15 5.445
560 2 10.89 19.965 5.445
561 2 10.89 18.15 7.26
562 2 12.705 19.965 7.26
563 2 12.705 18.15 9.075
564 1 10.89 19.965 9.075
565 2 10.89 18.15 10.89
566 2 12.705 19.965 10.89
567 2 12.705 18.15 12.705
568 1 10.89 19.965 12.705
569 2 10.89 18.15 14.52
570 2 12.705 19.965 14.52
571 2 12.705 18.15 16.335
572 2 10.89 19.965 16.335
573 2 10.89 18.15 18.15
574 2 12.705 19.965 18.15
575 2 12.705 18.15 19.965
576 2 10.89 19.965 19.965
577 2 14.52 0.0 0.0
578 2 16.335 1.815 0.0
579 2 16.335 0.0 1.815
580 2 14.52 1.815 1.815
581 2 14.52 0.0 3.63
582 2 16.335 1.815 3.63
583 2 16.335 0.0 5.445
584 2 14.52 1.815 5.445
585 1 14.52 0.0 7.26
586 2 16.335 1.815 7.26
587 2 16.335 0.0 9.075
588 2 14.52 1.815 9.075
589 2 14.52 0.0 10.89
590 2 16.335 1.815 10.89
591 2 16.335 0.0 12.705
592 2 14.52 1.815 12.705
593 2 14.52 0.0 14.52
594 2 16.335 1.815 14.52
595 2 16.335 0.0 16.335
596 2 14.52 1.815 16.335
597 2 14.52 0.0 18.15
598 2 16.335 1.815 18.15
599 2 16.335 0.0 19.965
600 2 14.52 1.815 19.965
601 1 14.52 3.63 0.0
602 2 16.335 5.445 0.0
603 2 16.335 3.63 1.815
604 2 14.52 5.445 1.815
605 2 14.52 3.63 3.63
606 2 16.335 5.445 3.63
607 2 16.335 3.63 5.445
608 1 14.52 5.445 5.445
609 2 14.52 3.63 7.26
610 1 16.335 5.445 7.26
611 2 16.335 3.63 9.075
612 2 14.52 5.445 9.075
613 2 14.52 3.63 10.89
614 2 16.335 5.445 10.89
615 1 16.335 3.63 12.705
616 2 14.52 5.445 12.705
617 2 14.52 3.63 14.52
618 2 16.335 5.445 14.52
619 2 16.335 3.63 16.335
620 2 14.52 5.445 16.335
621 2 14.52 3.63 18.15
622 2 16.335 5.445 18.15
623 2 16.335 3.63 19.965
624 2 14.52 5.445 19.965
625 2 14.52 7.26 0.0
626 2 16.335 9.075 0.0
627 2 16.335 7.26 1.815
628 2 14.52 9.075 1.815
629 2 14.52 7.26 3.63
630 1 16.335 9.075 3.63
631 2 16.335 7.26 5.445
632 2 14.52 9.075 5.445
633 2 14.52 7.26 7.26
634 2 16.335 9.075 7.26
635 2 16.335 7.26 9.075
636 2 14.52 9.075 9.075
637 2 14.52 7.26 10.89
638 2 16.335 9.075 10.89
639 2 16.335 7.26 12.705
640 2 14.52 9.075 12.705
641 2 14.52 7.26 14.52
642 2 16.335 9.075 14.52
643 2 16.335 7.26 16.335
644 2 14.52 9.075 16.335
645 2 14.52 7.26 18.15
646 2 16.335 9.075 18.15
647 2 16.335 7.26 19.965
648 2 14.52 9.075 19.965
649 2 14.52 10.89 0.0
650 2 16.335 12.705 0.0
651 2 16.335 10.89 1.815
652 2 14.52 12.705 1.815
653 2 14.52 10.89 3.63
654 2 16.335 12.705 3.63
655 2 16.335 10.89 5.445
656 2 14.52 12.705 5.445
657 2 14.52 10.89 7.26
658 2 16.335 12.705 7.26
659 2 16.335 10.89 9.075
660 1 14.52 12.705 9.075
661 2 14.52 10.89 10.89
662 2 16.335 12.705 10.89
663 2 16.335 10.89 12.705
664 1 14.52 12.705 12.705
665 2 14.52 10.89 14.52
666 2 16.335 12.705 14.52
667 2 16.335 10.89 16.335
668 2 14.52 12.705 16.335
669 2 14.52 10.89 18.15
670 2 16.335 12.705 18.15
671 2 16.335 10.89 19.965
672 2 14.52 12.705 19.965
673 2 14.52 14.52 0.0
674 2 16.335 16.335 0.0
675 2 16.335 14.52 1.815
676 1 14.52 16.335 1.815
677 2 14.52 14.52 3.63
678 2 16.335 16.335 3.63
679 2 16.335 14.52 5.445
680 2 14.52 16.335 5.445
681 2 14.52 14.52 7.26
682 2 16.335 16.335 7.26
683 2 16.335 14.52 9.075
684 2 14.52 16.335 9.075
685 2 14.52 14.52 10.89
686 2 16.335 16.335 10.89
687 2 16.335 14.52 12.705
688 2 14.52 16.335 12.705
689 2 14.52 14.52 14.52
690 2 16.335 16.335 14.52
691 1 16.335 14.52 16.335
692 2 14.52 16.335 16.335
693 2 14.52 14.52 18.15
694 2 16.335 16.335 18.15
695 2 16.335 14.52 19.965
696 2 14.52 16.335 19.965
697 2 14.52 18.15 0.0
698 2 16.335 19.965 0.0
699 2 16.335 18.15 1.815
700 2 14.52 19.965 1.815
701 2 14.52 18.15 3.63
702 2 16.335 19.965 3.63
703 1 16.335 18.15 5.445
704 2 14.52 19.965 5.445
705 2 14.52 18.15 7.26
706 2 16.335 19.965 7.26
707 2 16.335 18.15 9.075
708 2 14.52 19.965 9.075
709 2 14.52 18.15 10.89
710 2 16.335 19.965 10.89
711 2 16.335 18.15 12.705
712 2 14.52 19.965 12.705
713 2 14.52 18.15 14.52
714 2 16.335 19.965 14.52
715 2 16.335 18.15 16.335
716 2 14.52 19.965 16.335
717 2 14.52 18.15 18.15
718 2 16.335 19.965 18.15
719 2 16.335 18.15 19.965
720 2 14.52 19.965 19.965
721 2 18.15 0.0 0.0
722 2 19.965 1.815 0.0
723 2 19.965 0.0 1.815
724 2 18.15 1.815 1.815
725 1 18.15 0.0 3.63
726 2 19.965 1.815 3.63
727 2 19.965 0.0 5.445
728 2 18.15 1.815 5.445
729 2 18.15 0.0 7.26
730 2 19.965 1.815 7.26
731 2 19.965 0.0 9.075
732 2 18.15 1.815 9.075
733 2 18.15 0.0 10.89
734 2 19.965 1.815 10.89
735 2 19.965 0.0 12.705
736 2 18.15 1.815 12.705
737 2 18.15 0.0 14.52
738 2 19.965 1.815 14.52
739 2 19.965 0.0 16.335
740 2 18.15 1.815 16.335
741 2 18.15 0.0 18.15
742 2 19.965 1.815 18.15
743 2 19.965 0.0 19.965
744 2 18.15 1.815 19.965
745 2 18.15 3.63 0.0
746 2 19.965 5.445 0.0
747 2 19.965 3.63 1.815
748 2 18.15 5.445 1.815
749 1 18.15 3.63 3.63
750 2 19.965 5.445 3.63
751 2 19.965 3.63 5.445
752 2 18.15 5.445 5.445
753 2 18.15 3.63 7.26
754 2 19.965 5.445 7.26
755 2 19.965 3.63 9.075
756 2 18.15 5.445 9.075
757 2 18.15 3.63 10.89
758 2 19.965 5.445 10.89
759 2 19.965 3.63 12.705
760 2 18.15 5.445 12.705
761 2 18.15 3.63 14.52
762 2 19.965 5.445 14.52
763 2 19.965 3.63 16.335
764 2 18.15 5.445 16.335
765 2 18.15 3.63 18.15
766 2 19.965 5.445 18.15
767 2 19.965 3.63 19.965
768 2 18.15 5.445 19.965
769 2 18.15 7.26 0.0
770 2 19.965 9.075 0.0
771 2 19.965 7.26 1.815
772 2 18.15 9.075 1.815
773 2 18.15 7.26 3.63
774 2 19.965 9.075 3.63
775 2 19.965 7.26 5.445
776 2 18.15 9.075 5.445
777 2 18.15 7.26 7.26
778 2 19.965 9.075 7.26
779 2 19.965 7.26 9.075
780 2 18.15 9.075 9.075
781 2 18.15 7.26 10.89
782 2 19.965 9.075 10.89
783 2 19.965 7.26 12.705
784 2 18.15 9.075 12.705
785 2 18.15 7.26 14.52
786 2 19.965 9.075 14.52
787 2 19.965 7.26 16.335
788 2 18.15 9.075 16.335
789 2 18.15 7.26 18.15
790 2 19.965 9.075 18.15
791 2 19.965 7.26 19.965
792 2 18.15 9.075 19.965
793 1 18.15 10.89 0.0
794 2 19.965 12.705 0.0
795 2 19.965 10.89 1.815
796 2 18.15 12.705 1.815
797 2 18.15 10.89 3.63
798 2 19.965 12.705 3.63
799 2 19.965 10.89 5.445
800 2 18.15 12.705 5.445
801 2 18.15 10.89 7.26
802 2 19.965 12.705 7.26
803 2 19.965 10.89 9.075
804 2 18.15 12.705 9.075
805 2 18.15 10.89 10.89
806 2 19.965 12.705 10.89
807 2 19.965 10.89 12.705
808 2 18.15 12.705 12.705
809 2 18.15 10.89 14.52
810 2 19.965 12.705 14.52
811 1 19.965 10.89 16.335
812 2 18.15 12.705 16.335
813 2 18.15 10.89 18.15
814 2 19.965 12.705 18.15
815 2 19.965 10.89 19.965
816 2 18.15 12.705 19.965
817 2 18.15 14.52 0.0
818 2 19.965 16.335 0.0
819 2 19.965 14.52 1.815
820 1 18.15 16.335 1.815
821 2 18.15 14.52 3.63
822 2 19.965 16.335 3.63
823 2 19.965 14.52 5.445
824 2 18.15 16.335 5.445
825 2 18.15 14.52 7.26
826 2 19.965 16.335 7.26
827 2 19.965 14.52 9.075
828 2 18.15 16.335 9.075
829 2 18.15 14.52 10.89
830 2 19.965 16.335 10.89
831 2 19.965 14.52 12.705
832 2 18.15 16.335 12.705
833 2 18.15 14.52 14.52
834 2 19.965 16.335 14.52
835 2 19.965 14.52 16.335
836 2 18.15 16.335 16.335
837 2 18.15 14.52 18.15
838 1 19.965 16.335 18.15
839 2 19.965 14.52 19.965
840 2 18.15 16.335 19.965
841 2 18.15 18.15 0.0
842 2 19.965 19.965 0.0
843 2 19.965 18.15 1.815
844 2 18.15 19.965 1.815
845 2 18.15 18.15 3.63
846 2 19.965 19.965 3.63
847 2 19.965 18.15 5.445
848 2 18.15 19.965 5.445
849 2 18.15 18.15 7.26
850 2 19.965 19.965 7.26
851 2 19.965 18.15 9.075
852 2 18.15 19.965 9.075
853 2 18.15 18.15 10.89
854 2 19.965 19.965 10.89
855 2 19.965 18.15 12.705
856 2 18.15 19.965 12.705
857 1 18.15 18.15 14.52
858 2 19.965 19.965 14.52
859 2 19.965 18.15 16.335
860 2 18.15 19.965 16.335
861 2 18.15 18.15 18.15
862 2 19.965 19.965 18.15
863 2 19.965 18.15 19.965
864 2 18.15 19.965 19.965
