CuNi atom datafile for lammps scripts 

256 atoms
2 atom types
0.0 14.52 xlo xhi
0.0 14.52 ylo yhi
0.0 14.52 zlo zhi
0.0 0.0 0.0 xy xz yz

Atoms

1 2 0.0 0.0 0.0
2 1 1.815 1.815 0.0
3 2 1.815 0.0 1.815
4 2 0.0 1.815 1.815
5 2 0.0 0.0 3.63
6 1 1.815 1.815 3.63
7 2 1.815 0.0 5.445
8 2 0.0 1.815 5.445
9 2 0.0 0.0 7.26
10 2 1.815 1.815 7.26
11 2 1.815 0.0 9.075
12 2 0.0 1.815 9.075
13 2 0.0 0.0 10.89
14 2 1.815 1.815 10.89
15 2 1.815 0.0 12.705
16 2 0.0 1.815 12.705
17 2 0.0 3.63 0.0
18 1 1.815 5.445 0.0
19 2 1.815 3.63 1.815
20 1 0.0 5.445 1.815
21 2 0.0 3.63 3.63
22 2 1.815 5.445 3.63
23 1 1.815 3.63 5.445
24 1 0.0 5.445 5.445
25 2 0.0 3.63 7.26
26 2 1.815 5.445 7.26
27 2 1.815 3.63 9.075
28 1 0.0 5.445 9.075
29 2 0.0 3.63 10.89
30 2 1.815 5.445 10.89
31 2 1.815 3.63 12.705
32 2 0.0 5.445 12.705
33 2 0.0 7.26 0.0
34 2 1.815 9.075 0.0
35 2 1.815 7.26 1.815
36 2 0.0 9.075 1.815
37 2 0.0 7.26 3.63
38 1 1.815 9.075 3.63
39 2 1.815 7.26 5.445
40 2 0.0 9.075 5.445
41 1 0.0 7.26 7.26
42 2 1.815 9.075 7.26
43 2 1.815 7.26 9.075
44 2 0.0 9.075 9.075
45 2 0.0 7.26 10.89
46 2 1.815 9.075 10.89
47 2 1.815 7.26 12.705
48 2 0.0 9.075 12.705
49 1 0.0 10.89 0.0
50 1 1.815 12.705 0.0
51 1 1.815 10.89 1.815
52 2 0.0 12.705 1.815
53 2 0.0 10.89 3.63
54 2 1.815 12.705 3.63
55 1 1.815 10.89 5.445
56 2 0.0 12.705 5.445
57 2 0.0 10.89 7.26
58 2 1.815 12.705 7.26
59 2 1.815 10.89 9.075
60 2 0.0 12.705 9.075
61 2 0.0 10.89 10.89
62 1 1.815 12.705 10.89
63 1 1.815 10.89 12.705
64 2 0.0 12.705 12.705
65 2 3.63 0.0 0.0
66 2 5.445 1.815 0.0
67 2 5.445 0.0 1.815
68 2 3.63 1.815 1.815
69 2 3.63 0.0 3.63
70 2 5.445 1.815 3.63
71 2 5.445 0.0 5.445
72 1 3.63 1.815 5.445
73 2 3.63 0.0 7.26
74 2 5.445 1.815 7.26
75 2 5.445 0.0 9.075
76 2 3.63 1.815 9.075
77 2 3.63 0.0 10.89
78 2 5.445 1.815 10.89
79 1 5.445 0.0 12.705
80 2 3.63 1.815 12.705
81 2 3.63 3.63 0.0
82 1 5.445 5.445 0.0
83 2 5.445 3.63 1.815
84 2 3.63 5.445 1.815
85 2 3.63 3.63 3.63
86 2 5.445 5.445 3.63
87 2 5.445 3.63 5.445
88 2 3.63 5.445 5.445
89 1 3.63 3.63 7.26
90 2 5.445 5.445 7.26
91 1 5.445 3.63 9.075
92 2 3.63 5.445 9.075
93 2 3.63 3.63 10.89
94 2 5.445 5.445 10.89
95 2 5.445 3.63 12.705
96 1 3.63 5.445 12.705
97 2 3.63 7.26 0.0
98 1 5.445 9.075 0.0
99 1 5.445 7.26 1.815
100 2 3.63 9.075 1.815
101 2 3.63 7.26 3.63
102 1 5.445 9.075 3.63
103 2 5.445 7.26 5.445
104 2 3.63 9.075 5.445
105 2 3.63 7.26 7.26
106 2 5.445 9.075 7.26
107 2 5.445 7.26 9.075
108 1 3.63 9.075 9.075
109 2 3.63 7.26 10.89
110 2 5.445 9.075 10.89
111 2 5.445 7.26 12.705
112 2 3.63 9.075 12.705
113 2 3.63 10.89 0.0
114 2 5.445 12.705 0.0
115 2 5.445 10.89 1.815
116 2 3.63 12.705 1.815
117 2 3.63 10.89 3.63
118 2 5.445 12.705 3.63
119 2 5.445 10.89 5.445
120 2 3.63 12.705 5.445
121 2 3.63 10.89 7.26
122 1 5.445 12.705 7.26
123 2 5.445 10.89 9.075
124 2 3.63 12.705 9.075
125 2 3.63 10.89 10.89
126 2 5.445 12.705 10.89
127 2 5.445 10.89 12.705
128 1 3.63 12.705 12.705
129 2 7.26 0.0 0.0
130 2 9.075 1.815 0.0
131 1 9.075 0.0 1.815
132 2 7.26 1.815 1.815
133 2 7.26 0.0 3.63
134 1 9.075 1.815 3.63
135 2 9.075 0.0 5.445
136 2 7.26 1.815 5.445
137 2 7.26 0.0 7.26
138 1 9.075 1.815 7.26
139 2 9.075 0.0 9.075
140 1 7.26 1.815 9.075
141 2 7.26 0.0 10.89
142 2 9.075 1.815 10.89
143 1 9.075 0.0 12.705
144 2 7.26 1.815 12.705
145 2 7.26 3.63 0.0
146 2 9.075 5.445 0.0
147 2 9.075 3.63 1.815
148 1 7.26 5.445 1.815
149 2 7.26 3.63 3.63
150 2 9.075 5.445 3.63
151 2 9.075 3.63 5.445
152 1 7.26 5.445 5.445
153 2 7.26 3.63 7.26
154 2 9.075 5.445 7.26
155 2 9.075 3.63 9.075
156 2 7.26 5.445 9.075
157 1 7.26 3.63 10.89
158 2 9.075 5.445 10.89
159 2 9.075 3.63 12.705
160 2 7.26 5.445 12.705
161 2 7.26 7.26 0.0
162 2 9.075 9.075 0.0
163 2 9.075 7.26 1.815
164 2 7.26 9.075 1.815
165 2 7.26 7.26 3.63
166 2 9.075 9.075 3.63
167 2 9.075 7.26 5.445
168 2 7.26 9.075 5.445
169 2 7.26 7.26 7.26
170 2 9.075 9.075 7.26
171 2 9.075 7.26 9.075
172 2 7.26 9.075 9.075
173 2 7.26 7.26 10.89
174 2 9.075 9.075 10.89
175 2 9.075 7.26 12.705
176 2 7.26 9.075 12.705
177 2 7.26 10.89 0.0
178 2 9.075 12.705 0.0
179 2 9.075 10.89 1.815
180 2 7.26 12.705 1.815
181 2 7.26 10.89 3.63
182 2 9.075 12.705 3.63
183 2 9.075 10.89 5.445
184 2 7.26 12.705 5.445
185 2 7.26 10.89 7.26
186 1 9.075 12.705 7.26
187 1 9.075 10.89 9.075
188 2 7.26 12.705 9.075
189 2 7.26 10.89 10.89
190 2 9.075 12.705 10.89
191 1 9.075 10.89 12.705
192 2 7.26 12.705 12.705
193 2 10.89 0.0 0.0
194 2 12.705 1.815 0.0
195 2 12.705 0.0 1.815
196 1 10.89 1.815 1.815
197 1 10.89 0.0 3.63
198 2 12.705 1.815 3.63
199 2 12.705 0.0 5.445
200 2 10.89 1.815 5.445
201 2 10.89 0.0 7.26
202 2 12.705 1.815 7.26
203 2 12.705 0.0 9.075
204 2 10.89 1.815 9.075
205 2 10.89 0.0 10.89
206 2 12.705 1.815 10.89
207 1 12.705 0.0 12.705
208 2 10.89 1.815 12.705
209 2 10.89 3.63 0.0
210 2 12.705 5.445 0.0
211 2 12.705 3.63 1.815
212 2 10.89 5.445 1.815
213 2 10.89 3.63 3.63
214 1 12.705 5.445 3.63
215 2 12.705 3.63 5.445
216 2 10.89 5.445 5.445
217 1 10.89 3.63 7.26
218 2 12.705 5.445 7.26
219 2 12.705 3.63 9.075
220 2 10.89 5.445 9.075
221 2 10.89 3.63 10.89
222 2 12.705 5.445 10.89
223 2 12.705 3.63 12.705
224 2 10.89 5.445 12.705
225 1 10.89 7.26 0.0
226 2 12.705 9.075 0.0
227 1 12.705 7.26 1.815
228 1 10.89 9.075 1.815
229 2 10.89 7.26 3.63
230 2 12.705 9.075 3.63
231 2 12.705 7.26 5.445
232 2 10.89 9.075 5.445
233 2 10.89 7.26 7.26
234 2 12.705 9.075 7.26
235 2 12.705 7.26 9.075
236 2 10.89 9.075 9.075
237 2 10.89 7.26 10.89
238 2 12.705 9.075 10.89
239 2 12.705 7.26 12.705
240 2 10.89 9.075 12.705
241 1 10.89 10.89 0.0
242 2 12.705 12.705 0.0
243 2 12.705 10.89 1.815
244 2 10.89 12.705 1.815
245 2 10.89 10.89 3.63
246 2 12.705 12.705 3.63
247 2 12.705 10.89 5.445
248 2 10.89 12.705 5.445
249 2 10.89 10.89 7.26
250 2 12.705 12.705 7.26
251 2 12.705 10.89 9.075
252 2 10.89 12.705 9.075
253 2 10.89 10.89 10.89
254 2 12.705 12.705 10.89
255 2 12.705 10.89 12.705
256 2 10.89 12.705 12.705
