CuNi atom datafile for lammps scripts 

864 atoms
2 atom types
0.0 21.78 xlo xhi
0.0 21.78 ylo yhi
0.0 21.78 zlo zhi
0.0 0.0 0.0 xy xz yz

Atoms

1 1 0.0 0.0 0.0
2 1 1.815 1.815 0.0
3 1 1.815 0.0 1.815
4 2 0.0 1.815 1.815
5 1 0.0 0.0 3.63
6 1 1.815 1.815 3.63
7 1 1.815 0.0 5.445
8 1 0.0 1.815 5.445
9 1 0.0 0.0 7.26
10 2 1.815 1.815 7.26
11 1 1.815 0.0 9.075
12 1 0.0 1.815 9.075
13 1 0.0 0.0 10.89
14 1 1.815 1.815 10.89
15 2 1.815 0.0 12.705
16 1 0.0 1.815 12.705
17 2 0.0 0.0 14.52
18 1 1.815 1.815 14.52
19 1 1.815 0.0 16.335
20 1 0.0 1.815 16.335
21 1 0.0 0.0 18.15
22 1 1.815 1.815 18.15
23 2 1.815 0.0 19.965
24 1 0.0 1.815 19.965
25 2 0.0 3.63 0.0
26 2 1.815 5.445 0.0
27 2 1.815 3.63 1.815
28 1 0.0 5.445 1.815
29 1 0.0 3.63 3.63
30 2 1.815 5.445 3.63
31 2 1.815 3.63 5.445
32 2 0.0 5.445 5.445
33 1 0.0 3.63 7.26
34 1 1.815 5.445 7.26
35 1 1.815 3.63 9.075
36 2 0.0 5.445 9.075
37 1 0.0 3.63 10.89
38 2 1.815 5.445 10.89
39 1 1.815 3.63 12.705
40 2 0.0 5.445 12.705
41 2 0.0 3.63 14.52
42 1 1.815 5.445 14.52
43 2 1.815 3.63 16.335
44 2 0.0 5.445 16.335
45 1 0.0 3.63 18.15
46 1 1.815 5.445 18.15
47 1 1.815 3.63 19.965
48 2 0.0 5.445 19.965
49 1 0.0 7.26 0.0
50 1 1.815 9.075 0.0
51 1 1.815 7.26 1.815
52 2 0.0 9.075 1.815
53 2 0.0 7.26 3.63
54 1 1.815 9.075 3.63
55 2 1.815 7.26 5.445
56 1 0.0 9.075 5.445
57 2 0.0 7.26 7.26
58 1 1.815 9.075 7.26
59 1 1.815 7.26 9.075
60 1 0.0 9.075 9.075
61 1 0.0 7.26 10.89
62 1 1.815 9.075 10.89
63 1 1.815 7.26 12.705
64 2 0.0 9.075 12.705
65 1 0.0 7.26 14.52
66 2 1.815 9.075 14.52
67 2 1.815 7.26 16.335
68 1 0.0 9.075 16.335
69 1 0.0 7.26 18.15
70 1 1.815 9.075 18.15
71 1 1.815 7.26 19.965
72 1 0.0 9.075 19.965
73 1 0.0 10.89 0.0
74 1 1.815 12.705 0.0
75 1 1.815 10.89 1.815
76 1 0.0 12.705 1.815
77 2 0.0 10.89 3.63
78 1 1.815 12.705 3.63
79 1 1.815 10.89 5.445
80 1 0.0 12.705 5.445
81 1 0.0 10.89 7.26
82 1 1.815 12.705 7.26
83 2 1.815 10.89 9.075
84 1 0.0 12.705 9.075
85 1 0.0 10.89 10.89
86 2 1.815 12.705 10.89
87 1 1.815 10.89 12.705
88 1 0.0 12.705 12.705
89 1 0.0 10.89 14.52
90 1 1.815 12.705 14.52
91 2 1.815 10.89 16.335
92 2 0.0 12.705 16.335
93 2 0.0 10.89 18.15
94 2 1.815 12.705 18.15
95 1 1.815 10.89 19.965
96 2 0.0 12.705 19.965
97 2 0.0 14.52 0.0
98 1 1.815 16.335 0.0
99 1 1.815 14.52 1.815
100 1 0.0 16.335 1.815
101 2 0.0 14.52 3.63
102 1 1.815 16.335 3.63
103 1 1.815 14.52 5.445
104 1 0.0 16.335 5.445
105 1 0.0 14.52 7.26
106 1 1.815 16.335 7.26
107 1 1.815 14.52 9.075
108 1 0.0 16.335 9.075
109 1 0.0 14.52 10.89
110 2 1.815 16.335 10.89
111 1 1.815 14.52 12.705
112 1 0.0 16.335 12.705
113 1 0.0 14.52 14.52
114 1 1.815 16.335 14.52
115 2 1.815 14.52 16.335
116 1 0.0 16.335 16.335
117 1 0.0 14.52 18.15
118 1 1.815 16.335 18.15
119 2 1.815 14.52 19.965
120 1 0.0 16.335 19.965
121 1 0.0 18.15 0.0
122 1 1.815 19.965 0.0
123 2 1.815 18.15 1.815
124 1 0.0 19.965 1.815
125 1 0.0 18.15 3.63
126 1 1.815 19.965 3.63
127 2 1.815 18.15 5.445
128 2 0.0 19.965 5.445
129 2 0.0 18.15 7.26
130 1 1.815 19.965 7.26
131 1 1.815 18.15 9.075
132 2 0.0 19.965 9.075
133 1 0.0 18.15 10.89
134 1 1.815 19.965 10.89
135 1 1.815 18.15 12.705
136 1 0.0 19.965 12.705
137 1 0.0 18.15 14.52
138 1 1.815 19.965 14.52
139 1 1.815 18.15 16.335
140 1 0.0 19.965 16.335
141 2 0.0 18.15 18.15
142 2 1.815 19.965 18.15
143 1 1.815 18.15 19.965
144 1 0.0 19.965 19.965
145 1 3.63 0.0 0.0
146 1 5.445 1.815 0.0
147 2 5.445 0.0 1.815
148 2 3.63 1.815 1.815
149 2 3.63 0.0 3.63
150 1 5.445 1.815 3.63
151 2 5.445 0.0 5.445
152 1 3.63 1.815 5.445
153 1 3.63 0.0 7.26
154 1 5.445 1.815 7.26
155 1 5.445 0.0 9.075
156 1 3.63 1.815 9.075
157 1 3.63 0.0 10.89
158 1 5.445 1.815 10.89
159 1 5.445 0.0 12.705
160 2 3.63 1.815 12.705
161 1 3.63 0.0 14.52
162 1 5.445 1.815 14.52
163 2 5.445 0.0 16.335
164 2 3.63 1.815 16.335
165 1 3.63 0.0 18.15
166 1 5.445 1.815 18.15
167 1 5.445 0.0 19.965
168 1 3.63 1.815 19.965
169 1 3.63 3.63 0.0
170 2 5.445 5.445 0.0
171 1 5.445 3.63 1.815
172 2 3.63 5.445 1.815
173 2 3.63 3.63 3.63
174 1 5.445 5.445 3.63
175 1 5.445 3.63 5.445
176 1 3.63 5.445 5.445
177 1 3.63 3.63 7.26
178 1 5.445 5.445 7.26
179 2 5.445 3.63 9.075
180 1 3.63 5.445 9.075
181 1 3.63 3.63 10.89
182 2 5.445 5.445 10.89
183 1 5.445 3.63 12.705
184 1 3.63 5.445 12.705
185 1 3.63 3.63 14.52
186 1 5.445 5.445 14.52
187 1 5.445 3.63 16.335
188 1 3.63 5.445 16.335
189 1 3.63 3.63 18.15
190 1 5.445 5.445 18.15
191 1 5.445 3.63 19.965
192 1 3.63 5.445 19.965
193 1 3.63 7.26 0.0
194 1 5.445 9.075 0.0
195 1 5.445 7.26 1.815
196 1 3.63 9.075 1.815
197 1 3.63 7.26 3.63
198 2 5.445 9.075 3.63
199 1 5.445 7.26 5.445
200 1 3.63 9.075 5.445
201 2 3.63 7.26 7.26
202 2 5.445 9.075 7.26
203 1 5.445 7.26 9.075
204 2 3.63 9.075 9.075
205 2 3.63 7.26 10.89
206 1 5.445 9.075 10.89
207 2 5.445 7.26 12.705
208 1 3.63 9.075 12.705
209 2 3.63 7.26 14.52
210 2 5.445 9.075 14.52
211 2 5.445 7.26 16.335
212 1 3.63 9.075 16.335
213 1 3.63 7.26 18.15
214 1 5.445 9.075 18.15
215 2 5.445 7.26 19.965
216 2 3.63 9.075 19.965
217 1 3.63 10.89 0.0
218 1 5.445 12.705 0.0
219 2 5.445 10.89 1.815
220 2 3.63 12.705 1.815
221 1 3.63 10.89 3.63
222 1 5.445 12.705 3.63
223 1 5.445 10.89 5.445
224 1 3.63 12.705 5.445
225 1 3.63 10.89 7.26
226 1 5.445 12.705 7.26
227 2 5.445 10.89 9.075
228 1 3.63 12.705 9.075
229 1 3.63 10.89 10.89
230 1 5.445 12.705 10.89
231 2 5.445 10.89 12.705
232 1 3.63 12.705 12.705
233 1 3.63 10.89 14.52
234 1 5.445 12.705 14.52
235 1 5.445 10.89 16.335
236 1 3.63 12.705 16.335
237 1 3.63 10.89 18.15
238 1 5.445 12.705 18.15
239 1 5.445 10.89 19.965
240 2 3.63 12.705 19.965
241 1 3.63 14.52 0.0
242 2 5.445 16.335 0.0
243 1 5.445 14.52 1.815
244 1 3.63 16.335 1.815
245 1 3.63 14.52 3.63
246 1 5.445 16.335 3.63
247 1 5.445 14.52 5.445
248 2 3.63 16.335 5.445
249 2 3.63 14.52 7.26
250 1 5.445 16.335 7.26
251 1 5.445 14.52 9.075
252 2 3.63 16.335 9.075
253 1 3.63 14.52 10.89
254 1 5.445 16.335 10.89
255 1 5.445 14.52 12.705
256 2 3.63 16.335 12.705
257 1 3.63 14.52 14.52
258 1 5.445 16.335 14.52
259 1 5.445 14.52 16.335
260 2 3.63 16.335 16.335
261 1 3.63 14.52 18.15
262 1 5.445 16.335 18.15
263 1 5.445 14.52 19.965
264 1 3.63 16.335 19.965
265 1 3.63 18.15 0.0
266 1 5.445 19.965 0.0
267 1 5.445 18.15 1.815
268 1 3.63 19.965 1.815
269 1 3.63 18.15 3.63
270 2 5.445 19.965 3.63
271 1 5.445 18.15 5.445
272 1 3.63 19.965 5.445
273 1 3.63 18.15 7.26
274 1 5.445 19.965 7.26
275 1 5.445 18.15 9.075
276 1 3.63 19.965 9.075
277 2 3.63 18.15 10.89
278 1 5.445 19.965 10.89
279 1 5.445 18.15 12.705
280 1 3.63 19.965 12.705
281 2 3.63 18.15 14.52
282 1 5.445 19.965 14.52
283 1 5.445 18.15 16.335
284 1 3.63 19.965 16.335
285 1 3.63 18.15 18.15
286 2 5.445 19.965 18.15
287 1 5.445 18.15 19.965
288 1 3.63 19.965 19.965
289 2 7.26 0.0 0.0
290 1 9.075 1.815 0.0
291 2 9.075 0.0 1.815
292 1 7.26 1.815 1.815
293 1 7.26 0.0 3.63
294 1 9.075 1.815 3.63
295 1 9.075 0.0 5.445
296 2 7.26 1.815 5.445
297 1 7.26 0.0 7.26
298 1 9.075 1.815 7.26
299 1 9.075 0.0 9.075
300 1 7.26 1.815 9.075
301 1 7.26 0.0 10.89
302 1 9.075 1.815 10.89
303 1 9.075 0.0 12.705
304 2 7.26 1.815 12.705
305 1 7.26 0.0 14.52
306 2 9.075 1.815 14.52
307 2 9.075 0.0 16.335
308 2 7.26 1.815 16.335
309 1 7.26 0.0 18.15
310 1 9.075 1.815 18.15
311 1 9.075 0.0 19.965
312 1 7.26 1.815 19.965
313 2 7.26 3.63 0.0
314 1 9.075 5.445 0.0
315 1 9.075 3.63 1.815
316 1 7.26 5.445 1.815
317 1 7.26 3.63 3.63
318 2 9.075 5.445 3.63
319 1 9.075 3.63 5.445
320 1 7.26 5.445 5.445
321 1 7.26 3.63 7.26
322 1 9.075 5.445 7.26
323 1 9.075 3.63 9.075
324 2 7.26 5.445 9.075
325 1 7.26 3.63 10.89
326 1 9.075 5.445 10.89
327 2 9.075 3.63 12.705
328 1 7.26 5.445 12.705
329 1 7.26 3.63 14.52
330 1 9.075 5.445 14.52
331 2 9.075 3.63 16.335
332 1 7.26 5.445 16.335
333 2 7.26 3.63 18.15
334 2 9.075 5.445 18.15
335 1 9.075 3.63 19.965
336 1 7.26 5.445 19.965
337 1 7.26 7.26 0.0
338 1 9.075 9.075 0.0
339 1 9.075 7.26 1.815
340 1 7.26 9.075 1.815
341 1 7.26 7.26 3.63
342 1 9.075 9.075 3.63
343 1 9.075 7.26 5.445
344 1 7.26 9.075 5.445
345 1 7.26 7.26 7.26
346 1 9.075 9.075 7.26
347 2 9.075 7.26 9.075
348 2 7.26 9.075 9.075
349 1 7.26 7.26 10.89
350 1 9.075 9.075 10.89
351 1 9.075 7.26 12.705
352 1 7.26 9.075 12.705
353 1 7.26 7.26 14.52
354 1 9.075 9.075 14.52
355 1 9.075 7.26 16.335
356 2 7.26 9.075 16.335
357 2 7.26 7.26 18.15
358 1 9.075 9.075 18.15
359 1 9.075 7.26 19.965
360 1 7.26 9.075 19.965
361 2 7.26 10.89 0.0
362 1 9.075 12.705 0.0
363 1 9.075 10.89 1.815
364 1 7.26 12.705 1.815
365 1 7.26 10.89 3.63
366 1 9.075 12.705 3.63
367 1 9.075 10.89 5.445
368 2 7.26 12.705 5.445
369 1 7.26 10.89 7.26
370 2 9.075 12.705 7.26
371 2 9.075 10.89 9.075
372 1 7.26 12.705 9.075
373 2 7.26 10.89 10.89
374 1 9.075 12.705 10.89
375 1 9.075 10.89 12.705
376 1 7.26 12.705 12.705
377 1 7.26 10.89 14.52
378 1 9.075 12.705 14.52
379 1 9.075 10.89 16.335
380 1 7.26 12.705 16.335
381 1 7.26 10.89 18.15
382 2 9.075 12.705 18.15
383 1 9.075 10.89 19.965
384 1 7.26 12.705 19.965
385 1 7.26 14.52 0.0
386 1 9.075 16.335 0.0
387 1 9.075 14.52 1.815
388 1 7.26 16.335 1.815
389 1 7.26 14.52 3.63
390 2 9.075 16.335 3.63
391 1 9.075 14.52 5.445
392 1 7.26 16.335 5.445
393 1 7.26 14.52 7.26
394 2 9.075 16.335 7.26
395 1 9.075 14.52 9.075
396 1 7.26 16.335 9.075
397 1 7.26 14.52 10.89
398 1 9.075 16.335 10.89
399 1 9.075 14.52 12.705
400 1 7.26 16.335 12.705
401 2 7.26 14.52 14.52
402 1 9.075 16.335 14.52
403 1 9.075 14.52 16.335
404 2 7.26 16.335 16.335
405 1 7.26 14.52 18.15
406 1 9.075 16.335 18.15
407 1 9.075 14.52 19.965
408 1 7.26 16.335 19.965
409 2 7.26 18.15 0.0
410 1 9.075 19.965 0.0
411 1 9.075 18.15 1.815
412 1 7.26 19.965 1.815
413 1 7.26 18.15 3.63
414 2 9.075 19.965 3.63
415 1 9.075 18.15 5.445
416 2 7.26 19.965 5.445
417 2 7.26 18.15 7.26
418 1 9.075 19.965 7.26
419 1 9.075 18.15 9.075
420 1 7.26 19.965 9.075
421 1 7.26 18.15 10.89
422 2 9.075 19.965 10.89
423 2 9.075 18.15 12.705
424 1 7.26 19.965 12.705
425 1 7.26 18.15 14.52
426 1 9.075 19.965 14.52
427 2 9.075 18.15 16.335
428 1 7.26 19.965 16.335
429 1 7.26 18.15 18.15
430 1 9.075 19.965 18.15
431 2 9.075 18.15 19.965
432 1 7.26 19.965 19.965
433 1 10.89 0.0 0.0
434 1 12.705 1.815 0.0
435 1 12.705 0.0 1.815
436 1 10.89 1.815 1.815
437 1 10.89 0.0 3.63
438 1 12.705 1.815 3.63
439 1 12.705 0.0 5.445
440 2 10.89 1.815 5.445
441 1 10.89 0.0 7.26
442 2 12.705 1.815 7.26
443 1 12.705 0.0 9.075
444 2 10.89 1.815 9.075
445 2 10.89 0.0 10.89
446 2 12.705 1.815 10.89
447 1 12.705 0.0 12.705
448 1 10.89 1.815 12.705
449 1 10.89 0.0 14.52
450 1 12.705 1.815 14.52
451 1 12.705 0.0 16.335
452 2 10.89 1.815 16.335
453 1 10.89 0.0 18.15
454 1 12.705 1.815 18.15
455 1 12.705 0.0 19.965
456 2 10.89 1.815 19.965
457 1 10.89 3.63 0.0
458 1 12.705 5.445 0.0
459 1 12.705 3.63 1.815
460 2 10.89 5.445 1.815
461 1 10.89 3.63 3.63
462 1 12.705 5.445 3.63
463 1 12.705 3.63 5.445
464 1 10.89 5.445 5.445
465 1 10.89 3.63 7.26
466 1 12.705 5.445 7.26
467 2 12.705 3.63 9.075
468 1 10.89 5.445 9.075
469 1 10.89 3.63 10.89
470 1 12.705 5.445 10.89
471 1 12.705 3.63 12.705
472 1 10.89 5.445 12.705
473 1 10.89 3.63 14.52
474 1 12.705 5.445 14.52
475 1 12.705 3.63 16.335
476 1 10.89 5.445 16.335
477 2 10.89 3.63 18.15
478 1 12.705 5.445 18.15
479 1 12.705 3.63 19.965
480 1 10.89 5.445 19.965
481 2 10.89 7.26 0.0
482 1 12.705 9.075 0.0
483 2 12.705 7.26 1.815
484 2 10.89 9.075 1.815
485 1 10.89 7.26 3.63
486 1 12.705 9.075 3.63
487 2 12.705 7.26 5.445
488 1 10.89 9.075 5.445
489 1 10.89 7.26 7.26
490 1 12.705 9.075 7.26
491 1 12.705 7.26 9.075
492 1 10.89 9.075 9.075
493 2 10.89 7.26 10.89
494 1 12.705 9.075 10.89
495 2 12.705 7.26 12.705
496 2 10.89 9.075 12.705
497 1 10.89 7.26 14.52
498 1 12.705 9.075 14.52
499 2 12.705 7.26 16.335
500 1 10.89 9.075 16.335
501 2 10.89 7.26 18.15
502 1 12.705 9.075 18.15
503 1 12.705 7.26 19.965
504 1 10.89 9.075 19.965
505 2 10.89 10.89 0.0
506 1 12.705 12.705 0.0
507 1 12.705 10.89 1.815
508 1 10.89 12.705 1.815
509 2 10.89 10.89 3.63
510 1 12.705 12.705 3.63
511 1 12.705 10.89 5.445
512 2 10.89 12.705 5.445
513 2 10.89 10.89 7.26
514 2 12.705 12.705 7.26
515 2 12.705 10.89 9.075
516 1 10.89 12.705 9.075
517 2 10.89 10.89 10.89
518 1 12.705 12.705 10.89
519 1 12.705 10.89 12.705
520 1 10.89 12.705 12.705
521 1 10.89 10.89 14.52
522 1 12.705 12.705 14.52
523 1 12.705 10.89 16.335
524 1 10.89 12.705 16.335
525 1 10.89 10.89 18.15
526 1 12.705 12.705 18.15
527 1 12.705 10.89 19.965
528 1 10.89 12.705 19.965
529 1 10.89 14.52 0.0
530 1 12.705 16.335 0.0
531 2 12.705 14.52 1.815
532 1 10.89 16.335 1.815
533 1 10.89 14.52 3.63
534 1 12.705 16.335 3.63
535 1 12.705 14.52 5.445
536 1 10.89 16.335 5.445
537 1 10.89 14.52 7.26
538 1 12.705 16.335 7.26
539 1 12.705 14.52 9.075
540 1 10.89 16.335 9.075
541 1 10.89 14.52 10.89
542 1 12.705 16.335 10.89
543 2 12.705 14.52 12.705
544 2 10.89 16.335 12.705
545 2 10.89 14.52 14.52
546 2 12.705 16.335 14.52
547 2 12.705 14.52 16.335
548 2 10.89 16.335 16.335
549 1 10.89 14.52 18.15
550 1 12.705 16.335 18.15
551 1 12.705 14.52 19.965
552 1 10.89 16.335 19.965
553 2 10.89 18.15 0.0
554 1 12.705 19.965 0.0
555 1 12.705 18.15 1.815
556 1 10.89 19.965 1.815
557 1 10.89 18.15 3.63
558 1 12.705 19.965 3.63
559 2 12.705 18.15 5.445
560 1 10.89 19.965 5.445
561 1 10.89 18.15 7.26
562 1 12.705 19.965 7.26
563 1 12.705 18.15 9.075
564 1 10.89 19.965 9.075
565 1 10.89 18.15 10.89
566 1 12.705 19.965 10.89
567 2 12.705 18.15 12.705
568 1 10.89 19.965 12.705
569 2 10.89 18.15 14.52
570 2 12.705 19.965 14.52
571 2 12.705 18.15 16.335
572 1 10.89 19.965 16.335
573 1 10.89 18.15 18.15
574 2 12.705 19.965 18.15
575 2 12.705 18.15 19.965
576 1 10.89 19.965 19.965
577 1 14.52 0.0 0.0
578 1 16.335 1.815 0.0
579 1 16.335 0.0 1.815
580 1 14.52 1.815 1.815
581 1 14.52 0.0 3.63
582 1 16.335 1.815 3.63
583 2 16.335 0.0 5.445
584 2 14.52 1.815 5.445
585 2 14.52 0.0 7.26
586 1 16.335 1.815 7.26
587 1 16.335 0.0 9.075
588 1 14.52 1.815 9.075
589 2 14.52 0.0 10.89
590 2 16.335 1.815 10.89
591 2 16.335 0.0 12.705
592 1 14.52 1.815 12.705
593 1 14.52 0.0 14.52
594 2 16.335 1.815 14.52
595 2 16.335 0.0 16.335
596 2 14.52 1.815 16.335
597 1 14.52 0.0 18.15
598 1 16.335 1.815 18.15
599 2 16.335 0.0 19.965
600 2 14.52 1.815 19.965
601 2 14.52 3.63 0.0
602 1 16.335 5.445 0.0
603 1 16.335 3.63 1.815
604 1 14.52 5.445 1.815
605 2 14.52 3.63 3.63
606 1 16.335 5.445 3.63
607 2 16.335 3.63 5.445
608 1 14.52 5.445 5.445
609 1 14.52 3.63 7.26
610 1 16.335 5.445 7.26
611 1 16.335 3.63 9.075
612 2 14.52 5.445 9.075
613 1 14.52 3.63 10.89
614 1 16.335 5.445 10.89
615 1 16.335 3.63 12.705
616 2 14.52 5.445 12.705
617 1 14.52 3.63 14.52
618 1 16.335 5.445 14.52
619 1 16.335 3.63 16.335
620 1 14.52 5.445 16.335
621 1 14.52 3.63 18.15
622 1 16.335 5.445 18.15
623 1 16.335 3.63 19.965
624 1 14.52 5.445 19.965
625 1 14.52 7.26 0.0
626 2 16.335 9.075 0.0
627 2 16.335 7.26 1.815
628 1 14.52 9.075 1.815
629 1 14.52 7.26 3.63
630 2 16.335 9.075 3.63
631 1 16.335 7.26 5.445
632 1 14.52 9.075 5.445
633 2 14.52 7.26 7.26
634 2 16.335 9.075 7.26
635 1 16.335 7.26 9.075
636 2 14.52 9.075 9.075
637 1 14.52 7.26 10.89
638 1 16.335 9.075 10.89
639 1 16.335 7.26 12.705
640 1 14.52 9.075 12.705
641 1 14.52 7.26 14.52
642 2 16.335 9.075 14.52
643 1 16.335 7.26 16.335
644 1 14.52 9.075 16.335
645 1 14.52 7.26 18.15
646 1 16.335 9.075 18.15
647 1 16.335 7.26 19.965
648 2 14.52 9.075 19.965
649 1 14.52 10.89 0.0
650 2 16.335 12.705 0.0
651 1 16.335 10.89 1.815
652 1 14.52 12.705 1.815
653 1 14.52 10.89 3.63
654 1 16.335 12.705 3.63
655 1 16.335 10.89 5.445
656 1 14.52 12.705 5.445
657 1 14.52 10.89 7.26
658 1 16.335 12.705 7.26
659 1 16.335 10.89 9.075
660 1 14.52 12.705 9.075
661 1 14.52 10.89 10.89
662 1 16.335 12.705 10.89
663 2 16.335 10.89 12.705
664 1 14.52 12.705 12.705
665 2 14.52 10.89 14.52
666 1 16.335 12.705 14.52
667 2 16.335 10.89 16.335
668 2 14.52 12.705 16.335
669 2 14.52 10.89 18.15
670 2 16.335 12.705 18.15
671 1 16.335 10.89 19.965
672 2 14.52 12.705 19.965
673 1 14.52 14.52 0.0
674 1 16.335 16.335 0.0
675 1 16.335 14.52 1.815
676 2 14.52 16.335 1.815
677 1 14.52 14.52 3.63
678 1 16.335 16.335 3.63
679 1 16.335 14.52 5.445
680 1 14.52 16.335 5.445
681 1 14.52 14.52 7.26
682 1 16.335 16.335 7.26
683 1 16.335 14.52 9.075
684 1 14.52 16.335 9.075
685 1 14.52 14.52 10.89
686 1 16.335 16.335 10.89
687 1 16.335 14.52 12.705
688 2 14.52 16.335 12.705
689 2 14.52 14.52 14.52
690 1 16.335 16.335 14.52
691 2 16.335 14.52 16.335
692 2 14.52 16.335 16.335
693 1 14.52 14.52 18.15
694 2 16.335 16.335 18.15
695 1 16.335 14.52 19.965
696 2 14.52 16.335 19.965
697 1 14.52 18.15 0.0
698 1 16.335 19.965 0.0
699 1 16.335 18.15 1.815
700 1 14.52 19.965 1.815
701 1 14.52 18.15 3.63
702 1 16.335 19.965 3.63
703 1 16.335 18.15 5.445
704 2 14.52 19.965 5.445
705 2 14.52 18.15 7.26
706 1 16.335 19.965 7.26
707 2 16.335 18.15 9.075
708 2 14.52 19.965 9.075
709 1 14.52 18.15 10.89
710 2 16.335 19.965 10.89
711 1 16.335 18.15 12.705
712 1 14.52 19.965 12.705
713 2 14.52 18.15 14.52
714 1 16.335 19.965 14.52
715 1 16.335 18.15 16.335
716 1 14.52 19.965 16.335
717 1 14.52 18.15 18.15
718 1 16.335 19.965 18.15
719 1 16.335 18.15 19.965
720 2 14.52 19.965 19.965
721 1 18.15 0.0 0.0
722 1 19.965 1.815 0.0
723 1 19.965 0.0 1.815
724 1 18.15 1.815 1.815
725 2 18.15 0.0 3.63
726 1 19.965 1.815 3.63
727 1 19.965 0.0 5.445
728 1 18.15 1.815 5.445
729 1 18.15 0.0 7.26
730 1 19.965 1.815 7.26
731 1 19.965 0.0 9.075
732 2 18.15 1.815 9.075
733 2 18.15 0.0 10.89
734 1 19.965 1.815 10.89
735 2 19.965 0.0 12.705
736 2 18.15 1.815 12.705
737 1 18.15 0.0 14.52
738 1 19.965 1.815 14.52
739 1 19.965 0.0 16.335
740 1 18.15 1.815 16.335
741 1 18.15 0.0 18.15
742 1 19.965 1.815 18.15
743 1 19.965 0.0 19.965
744 1 18.15 1.815 19.965
745 1 18.15 3.63 0.0
746 1 19.965 5.445 0.0
747 1 19.965 3.63 1.815
748 2 18.15 5.445 1.815
749 1 18.15 3.63 3.63
750 2 19.965 5.445 3.63
751 2 19.965 3.63 5.445
752 1 18.15 5.445 5.445
753 1 18.15 3.63 7.26
754 1 19.965 5.445 7.26
755 1 19.965 3.63 9.075
756 2 18.15 5.445 9.075
757 1 18.15 3.63 10.89
758 1 19.965 5.445 10.89
759 2 19.965 3.63 12.705
760 2 18.15 5.445 12.705
761 2 18.15 3.63 14.52
762 1 19.965 5.445 14.52
763 1 19.965 3.63 16.335
764 1 18.15 5.445 16.335
765 1 18.15 3.63 18.15
766 2 19.965 5.445 18.15
767 2 19.965 3.63 19.965
768 1 18.15 5.445 19.965
769 1 18.15 7.26 0.0
770 1 19.965 9.075 0.0
771 1 19.965 7.26 1.815
772 1 18.15 9.075 1.815
773 2 18.15 7.26 3.63
774 2 19.965 9.075 3.63
775 1 19.965 7.26 5.445
776 2 18.15 9.075 5.445
777 2 18.15 7.26 7.26
778 1 19.965 9.075 7.26
779 1 19.965 7.26 9.075
780 1 18.15 9.075 9.075
781 1 18.15 7.26 10.89
782 2 19.965 9.075 10.89
783 1 19.965 7.26 12.705
784 1 18.15 9.075 12.705
785 2 18.15 7.26 14.52
786 1 19.965 9.075 14.52
787 1 19.965 7.26 16.335
788 2 18.15 9.075 16.335
789 1 18.15 7.26 18.15
790 1 19.965 9.075 18.15
791 1 19.965 7.26 19.965
792 1 18.15 9.075 19.965
793 1 18.15 10.89 0.0
794 1 19.965 12.705 0.0
795 2 19.965 10.89 1.815
796 2 18.15 12.705 1.815
797 1 18.15 10.89 3.63
798 1 19.965 12.705 3.63
799 1 19.965 10.89 5.445
800 1 18.15 12.705 5.445
801 2 18.15 10.89 7.26
802 2 19.965 12.705 7.26
803 1 19.965 10.89 9.075
804 1 18.15 12.705 9.075
805 1 18.15 10.89 10.89
806 1 19.965 12.705 10.89
807 1 19.965 10.89 12.705
808 1 18.15 12.705 12.705
809 2 18.15 10.89 14.52
810 1 19.965 12.705 14.52
811 2 19.965 10.89 16.335
812 2 18.15 12.705 16.335
813 1 18.15 10.89 18.15
814 1 19.965 12.705 18.15
815 2 19.965 10.89 19.965
816 1 18.15 12.705 19.965
817 1 18.15 14.52 0.0
818 1 19.965 16.335 0.0
819 1 19.965 14.52 1.815
820 1 18.15 16.335 1.815
821 2 18.15 14.52 3.63
822 1 19.965 16.335 3.63
823 1 19.965 14.52 5.445
824 1 18.15 16.335 5.445
825 1 18.15 14.52 7.26
826 2 19.965 16.335 7.26
827 1 19.965 14.52 9.075
828 1 18.15 16.335 9.075
829 1 18.15 14.52 10.89
830 2 19.965 16.335 10.89
831 1 19.965 14.52 12.705
832 1 18.15 16.335 12.705
833 2 18.15 14.52 14.52
834 1 19.965 16.335 14.52
835 2 19.965 14.52 16.335
836 1 18.15 16.335 16.335
837 1 18.15 14.52 18.15
838 2 19.965 16.335 18.15
839 2 19.965 14.52 19.965
840 1 18.15 16.335 19.965
841 1 18.15 18.15 0.0
842 2 19.965 19.965 0.0
843 1 19.965 18.15 1.815
844 1 18.15 19.965 1.815
845 1 18.15 18.15 3.63
846 1 19.965 19.965 3.63
847 2 19.965 18.15 5.445
848 1 18.15 19.965 5.445
849 1 18.15 18.15 7.26
850 1 19.965 19.965 7.26
851 2 19.965 18.15 9.075
852 1 18.15 19.965 9.075
853 1 18.15 18.15 10.89
854 2 19.965 19.965 10.89
855 2 19.965 18.15 12.705
856 1 18.15 19.965 12.705
857 1 18.15 18.15 14.52
858 1 19.965 19.965 14.52
859 1 19.965 18.15 16.335
860 2 18.15 19.965 16.335
861 1 18.15 18.15 18.15
862 1 19.965 19.965 18.15
863 2 19.965 18.15 19.965
864 1 18.15 19.965 19.965
