
units metal
dimension 3
boundary p p p
atom_style atomic
#atom_modify map array

#----------------- CREATE ATOMS ------------------------
#region simR block 0 8.092 0 4.046 0 4.046 #use change_box to reshape sim box
#region solidBase block 0 4.046 0 4.046 0 4.046 #create_box reshapes sim box to fit new atoms
#create_box 2 solidBase
read_data data.atoms group solAtoms
  triclinic box = (0 0 0) to (18.15 18.15 18.15) with tilt (0 0 0)
  1 by 1 by 1 MPI processor grid
  reading atoms ...
  500 atoms
  read_data CPU = 0.003301 secs
#read_data atom.data add append
#group baseAtoms region solidBase


# --------- DEFINE INTERATOMIC POTENTIAL ---------

pair_style eam/alloy
pair_coeff * * CuNi.eam.alloy Ni Cu
Reading potential file CuNi.eam.alloy with DATE: 2014-07-11
neighbor .05 bin
neigh_modify delay 10 check yes

# -------------- DEFFINE SETTINGS ----------------

#COMPUTES (do in Pylammps)

#---------------------- RUN ------------------------

#MINIMIZATION/RUN (do in pylammps)

info system
region solBase block 0 3.63 0 3.63 0 3.63 side in
group solAtoms region solBase
500 atoms in group solAtoms
change_box all x final -7.26 72.6 y final 0.0 18.15 z final 0.0 18.15
  triclinic box = (-7.26 0 0) to (72.6 18.15 18.15) with tilt (0 0 0)
  triclinic box = (-7.26 0 0) to (72.6 18.15 18.15) with tilt (0 0 0)
  triclinic box = (-7.26 0 0) to (72.6 18.15 18.15) with tilt (0 0 0)
region liquidBox block 25.41 43.56 0 18.15 0 18.15 side in
create_atoms 2 random 500 1 liquidBox
Created 500 atoms
  create_atoms CPU = 0.000244 secs
group liquidAtoms region liquidBox
500 atoms in group liquidAtoms
reset_timestep 0
timestep 0.001
thermo 10
thermo_style custom step atoms temp press etotal
dump 2 all custom 10 pos.XYZ id x y z
minimize 1e-7 1e-7 10000 10000
WARNING: Using 'neigh_modify every 1 delay 0 check yes' setting during minimization (../min.cpp:168)
Neighbor list info ...
  update every 1 steps, delay 0 steps, check yes
  max neighbors/atom: 2000, page size: 100000
  master list distance cutoff = 6.44433
  ghost atom cutoff = 6.44433
  binsize = 3.22217, bins = 25 6 6
  1 neighbor lists, perpetual/occasional/extra = 1 0 0
  (1) pair eam/alloy, perpetual
      attributes: half, newton on
      pair build: half/bin/newton/tri
      stencil: half/bin/3d/newton/tri
      bin: standard
Per MPI rank memory allocation (min/avg/max) = 5.819 | 5.819 | 5.819 Mbytes
Step Atoms Temp Press TotEng 
       0     1000            0    483127.96    6730.4292 
      10     1000            0    276650.15   -1079.2214 
      20     1000            0     83132.83   -3025.8235 
      30     1000            0    12520.405    -3411.258 
      40     1000            0   -5837.7586   -3502.8992 
      50     1000            0   -11265.125   -3539.6917 
      60     1000            0   -13124.258   -3561.7393 
      70     1000            0   -13235.225   -3573.8348 
      80     1000            0   -13289.117   -3579.6888 
      90     1000            0   -13344.332   -3584.1177 
     100     1000            0   -13177.763   -3586.4493 
     110     1000            0   -12908.366   -3589.6456 
     120     1000            0   -12462.311   -3592.1992 
     130     1000            0   -12548.621   -3594.1669 
     140     1000            0   -12524.149   -3595.2281 
     150     1000            0   -12156.784   -3595.7479 
     160     1000            0   -11474.259   -3596.3248 
     170     1000            0   -11994.606   -3597.3623 
     180     1000            0   -11838.767   -3597.6977 
     190     1000            0   -11998.521   -3597.7952 
     200     1000            0   -12005.425   -3597.8802 
     210     1000            0   -12329.934   -3598.0267 
     220     1000            0   -12539.362   -3598.1092 
     230     1000            0   -12491.546   -3598.1641 
     240     1000            0   -12703.482   -3598.2771 
     250     1000            0   -12931.004   -3598.4667 
     260     1000            0   -12713.758    -3598.566 
     270     1000            0   -12371.037   -3598.7325 
     280     1000            0   -12565.061   -3598.9693 
     290     1000            0   -12561.276   -3599.0547 
     300     1000            0   -12500.708   -3599.0949 
     310     1000            0   -12579.153   -3599.1091 
     317     1000            0   -12624.435   -3599.1122 
Loop time of 2.06489 on 1 procs for 317 steps with 1000 atoms

98.5% CPU use with 1 MPI tasks x no OpenMP threads

Minimization stats:
  Stopping criterion = energy tolerance
  Energy initial, next-to-last, final = 
         6730.42924783     -3599.11188333      -3599.1122402
  Force two-norm initial, final = 2888.97 0.0637936
  Force max component initial, final = 1036 0.0177095
  Final line search alpha, max atom move = 1 0.0177095
  Iterations, force evaluations = 317 534

MPI task timing breakdown:
Section |  min time  |  avg time  |  max time  |%varavg| %total
---------------------------------------------------------------
Pair    | 0.97844    | 0.97844    | 0.97844    |   0.0 | 47.38
Neigh   | 1.0177     | 1.0177     | 1.0177     |   0.0 | 49.28
Comm    | 0.024921   | 0.024921   | 0.024921   |   0.0 |  1.21
Output  | 0.024211   | 0.024211   | 0.024211   |   0.0 |  1.17
Modify  | 0          | 0          | 0          |   0.0 |  0.00
Other   |            | 0.01964    |            |       |  0.95

Nlocal:    1000 ave 1000 max 1000 min
Histogram: 1 0 0 0 0 0 0 0 0 0
Nghost:    1903 ave 1903 max 1903 min
Histogram: 1 0 0 0 0 0 0 0 0 0
Neighs:    38141 ave 38141 max 38141 min
Histogram: 1 0 0 0 0 0 0 0 0 0

Total # of neighbors = 38141
Ave neighs/atom = 38.141
Neighbor list builds = 502
Dangerous builds = 473
info groups
fix solTemp solAtoms nvt temp 600 600 0.1
fix liqTemp liquidAtoms nvt temp 3000 3000 0.1
run 400
Per MPI rank memory allocation (min/avg/max) = 4.694 | 4.694 | 4.694 Mbytes
Step Atoms Temp Press TotEng 
     317     1000            0   -12624.435   -3599.1122 
     320     1000 2.142871e-05   -12624.429   -3599.1122 
     330     1000 0.00037165735   -12624.323   -3599.1122 
     340     1000 0.00098637051   -12624.084   -3599.1122 
     350     1000 0.0016344516   -12623.716   -3599.1122 
     360     1000 0.0022669501   -12623.235   -3599.1122 
     370     1000 0.0030471535   -12622.657   -3599.1122 
     380     1000  0.004101783   -12621.997   -3599.1122 
     390     1000 0.0053365912   -12621.255   -3599.1122 
     400     1000 0.0065440922   -12620.423   -3599.1121 
     410     1000 0.0076557215   -12619.488   -3599.1121 
     420     1000 0.0088087425   -12618.431    -3599.112 
     430     1000  0.010140542   -12617.235    -3599.112 
     440     1000  0.011579604   -12615.873   -3599.1119 
     450     1000  0.012915026   -12614.324   -3599.1118 
     460     1000  0.014071992   -12612.578   -3599.1118 
     470     1000  0.015239086   -12610.635   -3599.1117 
     480     1000  0.016660394   -12608.505   -3599.1115 
     490     1000   0.01833151   -12606.203   -3599.1114 
     500     1000  0.019985468    -12603.75   -3599.1113 
     510     1000  0.021412336   -12601.173   -3599.1111 
     520     1000  0.022730957   -12598.501    -3599.111 
     530     1000  0.024265406   -12595.776   -3599.1108 
     540     1000  0.026160967   -12593.028   -3599.1106 
     550     1000  0.028213469   -12590.281   -3599.1104 
     560     1000  0.030135631   -12587.547   -3599.1102 
     570     1000  0.031933247   -12584.835     -3599.11 
     580     1000  0.033912737   -12582.164   -3599.1097 
     590     1000  0.036296726   -12579.541   -3599.1095 
     600     1000  0.038932291   -12576.966   -3599.1092 
     610     1000  0.041478612   -12574.436   -3599.1089 
     620     1000  0.043856031   -12571.957   -3599.1085 
     630     1000   0.04638196   -12569.554   -3599.1082 
     640     1000   0.04939085   -12567.256   -3599.1078 
     650     1000  0.052801696   -12565.089   -3599.1074 
     660     1000  0.056202036   -12563.084   -3599.1069 
     670     1000  0.059379554   -12561.271   -3599.1065 
     680     1000  0.062639477   -12559.695    -3599.106 
     690     1000  0.066477506   -12558.397   -3599.1054 
     700     1000  0.070984847   -12557.399   -3599.1049 
     710     1000  0.075732955   -12556.694   -3599.1043 
     717     1000  0.078961817   -12556.364   -3599.1038 
Loop time of 0.663413 on 1 procs for 400 steps with 1000 atoms

Performance: 52.094 ns/day, 0.461 hours/ns, 602.943 timesteps/s
98.1% CPU use with 1 MPI tasks x no OpenMP threads

MPI task timing breakdown:
Section |  min time  |  avg time  |  max time  |%varavg| %total
---------------------------------------------------------------
Pair    | 0.6199     | 0.6199     | 0.6199     |   0.0 | 93.44
Neigh   | 0.001993   | 0.001993   | 0.001993   |   0.0 |  0.30
Comm    | 0.00326    | 0.00326    | 0.00326    |   0.0 |  0.49
Output  | 0.029894   | 0.029894   | 0.029894   |   0.0 |  4.51
Modify  | 0.006933   | 0.006933   | 0.006933   |   0.0 |  1.05
Other   |            | 0.001436   |            |       |  0.22

Nlocal:    1000 ave 1000 max 1000 min
Histogram: 1 0 0 0 0 0 0 0 0 0
Nghost:    1901 ave 1901 max 1901 min
Histogram: 1 0 0 0 0 0 0 0 0 0
Neighs:    38140 ave 38140 max 38140 min
Histogram: 1 0 0 0 0 0 0 0 0 0

Total # of neighbors = 38140
Ave neighs/atom = 38.14
Neighbor list builds = 1
Dangerous builds = 0
minimize 1e-4 1e-4 10000 10000
WARNING: Using 'neigh_modify every 1 delay 0 check yes' setting during minimization (../min.cpp:168)
Per MPI rank memory allocation (min/avg/max) = 5.819 | 5.819 | 5.819 Mbytes
Step Atoms Temp Press TotEng 
     717     1000  0.078961817   -12556.364   -3599.1038 
     718     1000  0.078961817   -12559.765   -3599.1042 
Loop time of 0.006131 on 1 procs for 1 steps with 1000 atoms

99.0% CPU use with 1 MPI tasks x no OpenMP threads

Minimization stats:
  Stopping criterion = energy tolerance
  Energy initial, next-to-last, final = 
        -3599.11400873     -3599.11400873     -3599.11435276
  Force two-norm initial, final = 0.0629435 0.0859463
  Force max component initial, final = 0.00942557 0.0320267
  Final line search alpha, max atom move = 1 0.0320267
  Iterations, force evaluations = 1 2

MPI task timing breakdown:
Section |  min time  |  avg time  |  max time  |%varavg| %total
---------------------------------------------------------------
Pair    | 0.005335   | 0.005335   | 0.005335   |   0.0 | 87.02
Neigh   | 0          | 0          | 0          |   0.0 |  0.00
Comm    | 2.3e-05    | 2.3e-05    | 2.3e-05    |   0.0 |  0.38
Output  | 0          | 0          | 0          |   0.0 |  0.00
Modify  | 0          | 0          | 0          |   0.0 |  0.00
Other   |            | 0.000773   |            |       | 12.61

Nlocal:    1000 ave 1000 max 1000 min
Histogram: 1 0 0 0 0 0 0 0 0 0
Nghost:    1902 ave 1902 max 1902 min
Histogram: 1 0 0 0 0 0 0 0 0 0
Neighs:    38132 ave 38132 max 38132 min
Histogram: 1 0 0 0 0 0 0 0 0 0

Total # of neighbors = 38132
Ave neighs/atom = 38.132
Neighbor list builds = 0
Dangerous builds = 0
displace_atoms liquidAtoms move -0.363 0 0
run 20
Per MPI rank memory allocation (min/avg/max) = 4.694 | 4.694 | 4.694 Mbytes
Step Atoms Temp Press TotEng 
     718     1000  0.078961817   -12559.765   -3599.1042 
     720     1000   0.08011338   -12559.698    -3599.104 
     730     1000  0.085741881   -12559.491   -3599.1033 
     738     1000  0.089718703   -12559.468   -3599.1027 
Loop time of 0.032719 on 1 procs for 20 steps with 1000 atoms

Performance: 52.813 ns/day, 0.454 hours/ns, 611.266 timesteps/s
99.4% CPU use with 1 MPI tasks x no OpenMP threads

MPI task timing breakdown:
Section |  min time  |  avg time  |  max time  |%varavg| %total
---------------------------------------------------------------
Pair    | 0.030717   | 0.030717   | 0.030717   |   0.0 | 93.88
Neigh   | 0          | 0          | 0          |   0.0 |  0.00
Comm    | 0.000154   | 0.000154   | 0.000154   |   0.0 |  0.47
Output  | 0.001441   | 0.001441   | 0.001441   |   0.0 |  4.40
Modify  | 0.000353   | 0.000353   | 0.000353   |   0.0 |  1.08
Other   |            | 5.4e-05    |            |       |  0.17

Nlocal:    1000 ave 1000 max 1000 min
Histogram: 1 0 0 0 0 0 0 0 0 0
Nghost:    1902 ave 1902 max 1902 min
Histogram: 1 0 0 0 0 0 0 0 0 0
Neighs:    38131 ave 38131 max 38131 min
Histogram: 1 0 0 0 0 0 0 0 0 0

Total # of neighbors = 38131
Ave neighs/atom = 38.131
Neighbor list builds = 0
Dangerous builds = 0
minimize 1e-4 1e-4 10000 10000
WARNING: Using 'neigh_modify every 1 delay 0 check yes' setting during minimization (../min.cpp:168)
Per MPI rank memory allocation (min/avg/max) = 5.819 | 5.819 | 5.819 Mbytes
Step Atoms Temp Press TotEng 
     738     1000  0.089718703   -12559.468   -3599.1027 
     739     1000  0.089718703    -12560.92   -3599.1029 
Loop time of 0.006291 on 1 procs for 1 steps with 1000 atoms

97.2% CPU use with 1 MPI tasks x no OpenMP threads

Minimization stats:
  Stopping criterion = energy tolerance
  Energy initial, next-to-last, final = 
         -3599.1143182      -3599.1143182     -3599.11453208
  Force two-norm initial, final = 0.0669349 0.0638923
  Force max component initial, final = 0.0170037 0.0224887
  Final line search alpha, max atom move = 1 0.0224887
  Iterations, force evaluations = 1 2

MPI task timing breakdown:
Section |  min time  |  avg time  |  max time  |%varavg| %total
---------------------------------------------------------------
Pair    | 0.005504   | 0.005504   | 0.005504   |   0.0 | 87.49
Neigh   | 0          | 0          | 0          |   0.0 |  0.00
Comm    | 2.6e-05    | 2.6e-05    | 2.6e-05    |   0.0 |  0.41
Output  | 0          | 0          | 0          |   0.0 |  0.00
Modify  | 0          | 0          | 0          |   0.0 |  0.00
Other   |            | 0.000761   |            |       | 12.10

Nlocal:    1000 ave 1000 max 1000 min
Histogram: 1 0 0 0 0 0 0 0 0 0
Nghost:    1902 ave 1902 max 1902 min
Histogram: 1 0 0 0 0 0 0 0 0 0
Neighs:    38132 ave 38132 max 38132 min
Histogram: 1 0 0 0 0 0 0 0 0 0

Total # of neighbors = 38132
Ave neighs/atom = 38.132
Neighbor list builds = 0
Dangerous builds = 0
displace_atoms liquidAtoms move -0.363 0 0
run 20
Per MPI rank memory allocation (min/avg/max) = 4.694 | 4.694 | 4.694 Mbytes
Step Atoms Temp Press TotEng 
     739     1000  0.089718703    -12560.92   -3599.1029 
     740     1000  0.090344212   -12560.929   -3599.1029 
     750     1000   0.09609035   -12561.136   -3599.1021 
     759     1000   0.10042497   -12561.505   -3599.1013 
Loop time of 0.033428 on 1 procs for 20 steps with 1000 atoms

Performance: 51.693 ns/day, 0.464 hours/ns, 598.301 timesteps/s
98.9% CPU use with 1 MPI tasks x no OpenMP threads

MPI task timing breakdown:
Section |  min time  |  avg time  |  max time  |%varavg| %total
---------------------------------------------------------------
Pair    | 0.031405   | 0.031405   | 0.031405   |   0.0 | 93.95
Neigh   | 0          | 0          | 0          |   0.0 |  0.00
Comm    | 0.000153   | 0.000153   | 0.000153   |   0.0 |  0.46
Output  | 0.001464   | 0.001464   | 0.001464   |   0.0 |  4.38
Modify  | 0.000348   | 0.000348   | 0.000348   |   0.0 |  1.04
Other   |            | 5.8e-05    |            |       |  0.17

Nlocal:    1000 ave 1000 max 1000 min
Histogram: 1 0 0 0 0 0 0 0 0 0
Nghost:    1902 ave 1902 max 1902 min
Histogram: 1 0 0 0 0 0 0 0 0 0
Neighs:    38130 ave 38130 max 38130 min
Histogram: 1 0 0 0 0 0 0 0 0 0

Total # of neighbors = 38130
Ave neighs/atom = 38.13
Neighbor list builds = 0
Dangerous builds = 0
minimize 1e-4 1e-4 10000 10000
WARNING: Using 'neigh_modify every 1 delay 0 check yes' setting during minimization (../min.cpp:168)
Per MPI rank memory allocation (min/avg/max) = 5.819 | 5.819 | 5.819 Mbytes
Step Atoms Temp Press TotEng 
     759     1000   0.10042497   -12561.505   -3599.1013 
     760     1000   0.10042497   -12562.458   -3599.1016 
Loop time of 0.010283 on 1 procs for 1 steps with 1000 atoms

98.9% CPU use with 1 MPI tasks x no OpenMP threads

Minimization stats:
  Stopping criterion = energy tolerance
  Energy initial, next-to-last, final = 
        -3599.11429174     -3599.11429174     -3599.11453552
  Force two-norm initial, final = 0.0897919 0.054166
  Force max component initial, final = 0.0324246 0.0144528
  Final line search alpha, max atom move = 1 0.0144528
  Iterations, force evaluations = 1 2

MPI task timing breakdown:
Section |  min time  |  avg time  |  max time  |%varavg| %total
---------------------------------------------------------------
Pair    | 0.005444   | 0.005444   | 0.005444   |   0.0 | 52.94
Neigh   | 0.003905   | 0.003905   | 0.003905   |   0.0 | 37.98
Comm    | 0.00011    | 0.00011    | 0.00011    |   0.0 |  1.07
Output  | 0          | 0          | 0          |   0.0 |  0.00
Modify  | 0          | 0          | 0          |   0.0 |  0.00
Other   |            | 0.000824   |            |       |  8.01

Nlocal:    1000 ave 1000 max 1000 min
Histogram: 1 0 0 0 0 0 0 0 0 0
Nghost:    1902 ave 1902 max 1902 min
Histogram: 1 0 0 0 0 0 0 0 0 0
Neighs:    38129 ave 38129 max 38129 min
Histogram: 1 0 0 0 0 0 0 0 0 0

Total # of neighbors = 38129
Ave neighs/atom = 38.129
Neighbor list builds = 2
Dangerous builds = 2
displace_atoms liquidAtoms move -0.363 0 0
run 20
Per MPI rank memory allocation (min/avg/max) = 4.694 | 4.694 | 4.694 Mbytes
Step Atoms Temp Press TotEng 
     760     1000   0.10042497   -12562.458   -3599.1016 
     770     1000   0.10656587   -12563.117   -3599.1007 
     780     1000   0.11220566   -12563.988   -3599.0997 
Loop time of 0.032747 on 1 procs for 20 steps with 1000 atoms

Performance: 52.768 ns/day, 0.455 hours/ns, 610.743 timesteps/s
98.7% CPU use with 1 MPI tasks x no OpenMP threads

MPI task timing breakdown:
Section |  min time  |  avg time  |  max time  |%varavg| %total
---------------------------------------------------------------
Pair    | 0.03063    | 0.03063    | 0.03063    |   0.0 | 93.54
Neigh   | 0          | 0          | 0          |   0.0 |  0.00
Comm    | 0.000161   | 0.000161   | 0.000161   |   0.0 |  0.49
Output  | 0.001473   | 0.001473   | 0.001473   |   0.0 |  4.50
Modify  | 0.000419   | 0.000419   | 0.000419   |   0.0 |  1.28
Other   |            | 6.4e-05    |            |       |  0.20

Nlocal:    1000 ave 1000 max 1000 min
Histogram: 1 0 0 0 0 0 0 0 0 0
Nghost:    1902 ave 1902 max 1902 min
Histogram: 1 0 0 0 0 0 0 0 0 0
Neighs:    38129 ave 38129 max 38129 min
Histogram: 1 0 0 0 0 0 0 0 0 0

Total # of neighbors = 38129
Ave neighs/atom = 38.129
Neighbor list builds = 0
Dangerous builds = 0
minimize 1e-4 1e-4 10000 10000
WARNING: Using 'neigh_modify every 1 delay 0 check yes' setting during minimization (../min.cpp:168)
Per MPI rank memory allocation (min/avg/max) = 5.819 | 5.819 | 5.819 Mbytes
Step Atoms Temp Press TotEng 
     780     1000   0.11220566   -12563.988   -3599.0997 
     781     1000   0.11220566     -12564.9      -3599.1 
Loop time of 0.010448 on 1 procs for 1 steps with 1000 atoms

97.9% CPU use with 1 MPI tasks x no OpenMP threads

Minimization stats:
  Stopping criterion = energy tolerance
  Energy initial, next-to-last, final = 
         -3599.1142276      -3599.1142276     -3599.11446714
  Force two-norm initial, final = 0.0868886 0.0574913
  Force max component initial, final = 0.0316533 0.0159364
  Final line search alpha, max atom move = 1 0.0159364
  Iterations, force evaluations = 1 2

MPI task timing breakdown:
Section |  min time  |  avg time  |  max time  |%varavg| %total
---------------------------------------------------------------
Pair    | 0.005517   | 0.005517   | 0.005517   |   0.0 | 52.80
Neigh   | 0.003974   | 0.003974   | 0.003974   |   0.0 | 38.04
Comm    | 0.000108   | 0.000108   | 0.000108   |   0.0 |  1.03
Output  | 0          | 0          | 0          |   0.0 |  0.00
Modify  | 0          | 0          | 0          |   0.0 |  0.00
Other   |            | 0.000849   |            |       |  8.13

Nlocal:    1000 ave 1000 max 1000 min
Histogram: 1 0 0 0 0 0 0 0 0 0
Nghost:    1902 ave 1902 max 1902 min
Histogram: 1 0 0 0 0 0 0 0 0 0
Neighs:    38128 ave 38128 max 38128 min
Histogram: 1 0 0 0 0 0 0 0 0 0

Total # of neighbors = 38128
Ave neighs/atom = 38.128
Neighbor list builds = 2
Dangerous builds = 2
displace_atoms liquidAtoms move -0.363 0 0
run 20
Per MPI rank memory allocation (min/avg/max) = 4.694 | 4.694 | 4.694 Mbytes
Step Atoms Temp Press TotEng 
     781     1000   0.11220566     -12564.9      -3599.1 
     790     1000   0.11849176   -12565.898   -3599.0991 
     800     1000   0.12529218   -12567.214    -3599.098 
     801     1000   0.12597231   -12567.358   -3599.0979 
Loop time of 0.034643 on 1 procs for 20 steps with 1000 atoms

Performance: 49.880 ns/day, 0.481 hours/ns, 577.317 timesteps/s
97.4% CPU use with 1 MPI tasks x no OpenMP threads

MPI task timing breakdown:
Section |  min time  |  avg time  |  max time  |%varavg| %total
---------------------------------------------------------------
Pair    | 0.032405   | 0.032405   | 0.032405   |   0.0 | 93.54
Neigh   | 0          | 0          | 0          |   0.0 |  0.00
Comm    | 0.000159   | 0.000159   | 0.000159   |   0.0 |  0.46
Output  | 0.001639   | 0.001639   | 0.001639   |   0.0 |  4.73
Modify  | 0.00037    | 0.00037    | 0.00037    |   0.0 |  1.07
Other   |            | 7e-05      |            |       |  0.20

Nlocal:    1000 ave 1000 max 1000 min
Histogram: 1 0 0 0 0 0 0 0 0 0
Nghost:    1902 ave 1902 max 1902 min
Histogram: 1 0 0 0 0 0 0 0 0 0
Neighs:    38128 ave 38128 max 38128 min
Histogram: 1 0 0 0 0 0 0 0 0 0

Total # of neighbors = 38128
Ave neighs/atom = 38.128
Neighbor list builds = 0
Dangerous builds = 0
minimize 1e-4 1e-4 10000 10000
WARNING: Using 'neigh_modify every 1 delay 0 check yes' setting during minimization (../min.cpp:168)
Per MPI rank memory allocation (min/avg/max) = 5.819 | 5.819 | 5.819 Mbytes
Step Atoms Temp Press TotEng 
     801     1000   0.12597231   -12567.358   -3599.0979 
     802     1000   0.12597231   -12568.408   -3599.0981 
Loop time of 0.011006 on 1 procs for 1 steps with 1000 atoms

97.2% CPU use with 1 MPI tasks x no OpenMP threads

Minimization stats:
  Stopping criterion = energy tolerance
  Energy initial, next-to-last, final = 
          -3599.114179       -3599.114179     -3599.11438849
  Force two-norm initial, final = 0.0709421 0.065975
  Force max component initial, final = 0.0225662 0.0216102
  Final line search alpha, max atom move = 1 0.0216102
  Iterations, force evaluations = 1 2

MPI task timing breakdown:
Section |  min time  |  avg time  |  max time  |%varavg| %total
---------------------------------------------------------------
Pair    | 0.005946   | 0.005946   | 0.005946   |   0.0 | 54.03
Neigh   | 0.004139   | 0.004139   | 0.004139   |   0.0 | 37.61
Comm    | 0.000112   | 0.000112   | 0.000112   |   0.0 |  1.02
Output  | 0          | 0          | 0          |   0.0 |  0.00
Modify  | 0          | 0          | 0          |   0.0 |  0.00
Other   |            | 0.000809   |            |       |  7.35

Nlocal:    1000 ave 1000 max 1000 min
Histogram: 1 0 0 0 0 0 0 0 0 0
Nghost:    1902 ave 1902 max 1902 min
Histogram: 1 0 0 0 0 0 0 0 0 0
Neighs:    38129 ave 38129 max 38129 min
Histogram: 1 0 0 0 0 0 0 0 0 0

Total # of neighbors = 38129
Ave neighs/atom = 38.129
Neighbor list builds = 2
Dangerous builds = 2
displace_atoms liquidAtoms move -0.363 0 0
run 20
Per MPI rank memory allocation (min/avg/max) = 4.694 | 4.694 | 4.694 Mbytes
Step Atoms Temp Press TotEng 
     802     1000   0.12597231   -12568.408   -3599.0981 
     810     1000   0.13242085   -12569.664   -3599.0972 
     820     1000   0.14035403   -12571.436    -3599.096 
     822     1000   0.14192224   -12571.818   -3599.0958 
Loop time of 0.033673 on 1 procs for 20 steps with 1000 atoms

Performance: 51.317 ns/day, 0.468 hours/ns, 593.948 timesteps/s
98.2% CPU use with 1 MPI tasks x no OpenMP threads

MPI task timing breakdown:
Section |  min time  |  avg time  |  max time  |%varavg| %total
---------------------------------------------------------------
Pair    | 0.031568   | 0.031568   | 0.031568   |   0.0 | 93.75
Neigh   | 0          | 0          | 0          |   0.0 |  0.00
Comm    | 0.000161   | 0.000161   | 0.000161   |   0.0 |  0.48
Output  | 0.001492   | 0.001492   | 0.001492   |   0.0 |  4.43
Modify  | 0.000385   | 0.000385   | 0.000385   |   0.0 |  1.14
Other   |            | 6.7e-05    |            |       |  0.20

Nlocal:    1000 ave 1000 max 1000 min
Histogram: 1 0 0 0 0 0 0 0 0 0
Nghost:    1902 ave 1902 max 1902 min
Histogram: 1 0 0 0 0 0 0 0 0 0
Neighs:    38129 ave 38129 max 38129 min
Histogram: 1 0 0 0 0 0 0 0 0 0

Total # of neighbors = 38129
Ave neighs/atom = 38.129
Neighbor list builds = 0
Dangerous builds = 0
minimize 1e-4 1e-4 10000 10000
WARNING: Using 'neigh_modify every 1 delay 0 check yes' setting during minimization (../min.cpp:168)
Per MPI rank memory allocation (min/avg/max) = 5.819 | 5.819 | 5.819 Mbytes
Step Atoms Temp Press TotEng 
     822     1000   0.14192224   -12571.818   -3599.0958 
     823     1000   0.14192224   -12572.875    -3599.096 
Loop time of 0.006469 on 1 procs for 1 steps with 1000 atoms

96.2% CPU use with 1 MPI tasks x no OpenMP threads

Minimization stats:
  Stopping criterion = energy tolerance
  Energy initial, next-to-last, final = 
        -3599.11410416     -3599.11410416     -3599.11431166
  Force two-norm initial, final = 0.0638687 0.0724153
  Force max component initial, final = 0.0187058 0.0255012
  Final line search alpha, max atom move = 1 0.0255012
  Iterations, force evaluations = 1 2

MPI task timing breakdown:
Section |  min time  |  avg time  |  max time  |%varavg| %total
---------------------------------------------------------------
Pair    | 0.005618   | 0.005618   | 0.005618   |   0.0 | 86.84
Neigh   | 0          | 0          | 0          |   0.0 |  0.00
Comm    | 2.4e-05    | 2.4e-05    | 2.4e-05    |   0.0 |  0.37
Output  | 0          | 0          | 0          |   0.0 |  0.00
Modify  | 0          | 0          | 0          |   0.0 |  0.00
Other   |            | 0.000827   |            |       | 12.78

Nlocal:    1000 ave 1000 max 1000 min
Histogram: 1 0 0 0 0 0 0 0 0 0
Nghost:    1902 ave 1902 max 1902 min
Histogram: 1 0 0 0 0 0 0 0 0 0
Neighs:    38130 ave 38130 max 38130 min
Histogram: 1 0 0 0 0 0 0 0 0 0

Total # of neighbors = 38130
Ave neighs/atom = 38.13
Neighbor list builds = 0
Dangerous builds = 0
displace_atoms liquidAtoms move -0.363 0 0
run 20
Per MPI rank memory allocation (min/avg/max) = 4.694 | 4.694 | 4.694 Mbytes
Step Atoms Temp Press TotEng 
     823     1000   0.14192224   -12572.875    -3599.096 
     830     1000    0.1484154   -12574.295   -3599.0951 
     840     1000   0.15744315    -12576.52   -3599.0937 
     843     1000   0.16007806   -12577.226   -3599.0933 
Loop time of 0.03455 on 1 procs for 20 steps with 1000 atoms

Performance: 50.014 ns/day, 0.480 hours/ns, 578.871 timesteps/s
97.3% CPU use with 1 MPI tasks x no OpenMP threads

MPI task timing breakdown:
Section |  min time  |  avg time  |  max time  |%varavg| %total
---------------------------------------------------------------
Pair    | 0.032396   | 0.032396   | 0.032396   |   0.0 | 93.77
Neigh   | 0          | 0          | 0          |   0.0 |  0.00
Comm    | 0.000169   | 0.000169   | 0.000169   |   0.0 |  0.49
Output  | 0.001572   | 0.001572   | 0.001572   |   0.0 |  4.55
Modify  | 0.000353   | 0.000353   | 0.000353   |   0.0 |  1.02
Other   |            | 6e-05      |            |       |  0.17

Nlocal:    1000 ave 1000 max 1000 min
Histogram: 1 0 0 0 0 0 0 0 0 0
Nghost:    1902 ave 1902 max 1902 min
Histogram: 1 0 0 0 0 0 0 0 0 0
Neighs:    38130 ave 38130 max 38130 min
Histogram: 1 0 0 0 0 0 0 0 0 0

Total # of neighbors = 38130
Ave neighs/atom = 38.13
Neighbor list builds = 0
Dangerous builds = 0
minimize 1e-4 1e-4 10000 10000
WARNING: Using 'neigh_modify every 1 delay 0 check yes' setting during minimization (../min.cpp:168)
Per MPI rank memory allocation (min/avg/max) = 5.819 | 5.819 | 5.819 Mbytes
Step Atoms Temp Press TotEng 
     843     1000   0.16007806   -12577.226   -3599.0933 
     844     1000   0.16007806   -12577.897   -3599.0935 
Loop time of 0.010628 on 1 procs for 1 steps with 1000 atoms

97.5% CPU use with 1 MPI tasks x no OpenMP threads

Minimization stats:
  Stopping criterion = energy tolerance
  Energy initial, next-to-last, final = 
        -3599.11399038     -3599.11399038     -3599.11418784
  Force two-norm initial, final = 0.067973 0.0666458
  Force max component initial, final = 0.0221086 0.0215487
  Final line search alpha, max atom move = 1 0.0215487
  Iterations, force evaluations = 1 2

MPI task timing breakdown:
Section |  min time  |  avg time  |  max time  |%varavg| %total
---------------------------------------------------------------
Pair    | 0.005532   | 0.005532   | 0.005532   |   0.0 | 52.05
Neigh   | 0.004134   | 0.004134   | 0.004134   |   0.0 | 38.90
Comm    | 0.000105   | 0.000105   | 0.000105   |   0.0 |  0.99
Output  | 0          | 0          | 0          |   0.0 |  0.00
Modify  | 0          | 0          | 0          |   0.0 |  0.00
Other   |            | 0.000857   |            |       |  8.06

Nlocal:    1000 ave 1000 max 1000 min
Histogram: 1 0 0 0 0 0 0 0 0 0
Nghost:    1902 ave 1902 max 1902 min
Histogram: 1 0 0 0 0 0 0 0 0 0
Neighs:    38131 ave 38131 max 38131 min
Histogram: 1 0 0 0 0 0 0 0 0 0

Total # of neighbors = 38131
Ave neighs/atom = 38.131
Neighbor list builds = 2
Dangerous builds = 2
displace_atoms liquidAtoms move -0.363 0 0
run 20
Per MPI rank memory allocation (min/avg/max) = 4.694 | 4.694 | 4.694 Mbytes
Step Atoms Temp Press TotEng 
     844     1000   0.16007806   -12578.879   -3599.0938 
     850     1000   0.16627426   -12579.582    -3599.093 
     860     1000   0.17626085   -12582.196   -3599.0914 
     864     1000   0.18016256   -12583.299   -3599.0908 
Loop time of 0.033727 on 1 procs for 20 steps with 1000 atoms

Performance: 51.235 ns/day, 0.468 hours/ns, 592.997 timesteps/s
98.9% CPU use with 1 MPI tasks x no OpenMP threads

MPI task timing breakdown:
Section |  min time  |  avg time  |  max time  |%varavg| %total
---------------------------------------------------------------
Pair    | 0.031413   | 0.031413   | 0.031413   |   0.0 | 93.14
Neigh   | 0          | 0          | 0          |   0.0 |  0.00
Comm    | 0.000154   | 0.000154   | 0.000154   |   0.0 |  0.46
Output  | 0.001753   | 0.001753   | 0.001753   |   0.0 |  5.20
Modify  | 0.000343   | 0.000343   | 0.000343   |   0.0 |  1.02
Other   |            | 6.4e-05    |            |       |  0.19

Nlocal:    1000 ave 1000 max 1000 min
Histogram: 1 0 0 0 0 0 0 0 0 0
Nghost:    1902 ave 1902 max 1902 min
Histogram: 1 0 0 0 0 0 0 0 0 0
Neighs:    38135 ave 38135 max 38135 min
Histogram: 1 0 0 0 0 0 0 0 0 0

Total # of neighbors = 38135
Ave neighs/atom = 38.135
Neighbor list builds = 0
Dangerous builds = 0
minimize 1e-4 1e-4 10000 10000
WARNING: Using 'neigh_modify every 1 delay 0 check yes' setting during minimization (../min.cpp:168)
Per MPI rank memory allocation (min/avg/max) = 5.819 | 5.819 | 5.819 Mbytes
Step Atoms Temp Press TotEng 
     864     1000   0.18016256   -12583.299   -3599.0908 
     865     1000   0.18016256    -12583.79    -3599.091 
Loop time of 0.01043 on 1 procs for 1 steps with 1000 atoms

98.0% CPU use with 1 MPI tasks x no OpenMP threads

Minimization stats:
  Stopping criterion = energy tolerance
  Energy initial, next-to-last, final = 
        -3599.11406912     -3599.11406912     -3599.11428961
  Force two-norm initial, final = 0.0802706 0.0615651
  Force max component initial, final = 0.0293195 0.0171325
  Final line search alpha, max atom move = 1 0.0171325
  Iterations, force evaluations = 1 2

MPI task timing breakdown:
Section |  min time  |  avg time  |  max time  |%varavg| %total
---------------------------------------------------------------
Pair    | 0.005405   | 0.005405   | 0.005405   |   0.0 | 51.82
Neigh   | 0.004103   | 0.004103   | 0.004103   |   0.0 | 39.34
Comm    | 0.000105   | 0.000105   | 0.000105   |   0.0 |  1.01
Output  | 0          | 0          | 0          |   0.0 |  0.00
Modify  | 0          | 0          | 0          |   0.0 |  0.00
Other   |            | 0.000817   |            |       |  7.83

Nlocal:    1000 ave 1000 max 1000 min
Histogram: 1 0 0 0 0 0 0 0 0 0
Nghost:    1902 ave 1902 max 1902 min
Histogram: 1 0 0 0 0 0 0 0 0 0
Neighs:    38131 ave 38131 max 38131 min
Histogram: 1 0 0 0 0 0 0 0 0 0

Total # of neighbors = 38131
Ave neighs/atom = 38.131
Neighbor list builds = 2
Dangerous builds = 2
displace_atoms liquidAtoms move -0.363 0 0
run 20
Per MPI rank memory allocation (min/avg/max) = 4.694 | 4.694 | 4.694 Mbytes
Step Atoms Temp Press TotEng 
     865     1000   0.18016256   -12594.637   -3599.1061 
     870     1000   0.18609065    -12596.23   -3599.1052 
     880     1000   0.19837148   -12600.429   -3599.1035 
     885     1000    0.2047322    -12603.02   -3599.1026 
Loop time of 0.033374 on 1 procs for 20 steps with 1000 atoms

Performance: 51.777 ns/day, 0.464 hours/ns, 599.269 timesteps/s
98.6% CPU use with 1 MPI tasks x no OpenMP threads

MPI task timing breakdown:
Section |  min time  |  avg time  |  max time  |%varavg| %total
---------------------------------------------------------------
Pair    | 0.031328   | 0.031328   | 0.031328   |   0.0 | 93.87
Neigh   | 0          | 0          | 0          |   0.0 |  0.00
Comm    | 0.000155   | 0.000155   | 0.000155   |   0.0 |  0.46
Output  | 0.001493   | 0.001493   | 0.001493   |   0.0 |  4.47
Modify  | 0.000339   | 0.000339   | 0.000339   |   0.0 |  1.02
Other   |            | 5.9e-05    |            |       |  0.18

Nlocal:    1000 ave 1000 max 1000 min
Histogram: 1 0 0 0 0 0 0 0 0 0
Nghost:    1902 ave 1902 max 1902 min
Histogram: 1 0 0 0 0 0 0 0 0 0
Neighs:    38136 ave 38136 max 38136 min
Histogram: 1 0 0 0 0 0 0 0 0 0

Total # of neighbors = 38136
Ave neighs/atom = 38.136
Neighbor list builds = 0
Dangerous builds = 0
minimize 1e-4 1e-4 10000 10000
WARNING: Using 'neigh_modify every 1 delay 0 check yes' setting during minimization (../min.cpp:168)
Per MPI rank memory allocation (min/avg/max) = 5.819 | 5.819 | 5.819 Mbytes
Step Atoms Temp Press TotEng 
     885     1000    0.2047322    -12603.02   -3599.1026 
     886     1000    0.2047322   -12609.768   -3599.1032 
Loop time of 0.010306 on 1 procs for 1 steps with 1000 atoms

98.7% CPU use with 1 MPI tasks x no OpenMP threads

Minimization stats:
  Stopping criterion = energy tolerance
  Energy initial, next-to-last, final = 
        -3599.12905791     -3599.12905791     -3599.12960929
  Force two-norm initial, final = 0.106675 0.106978
  Force max component initial, final = 0.0582226 0.0374372
  Final line search alpha, max atom move = 1 0.0374372
  Iterations, force evaluations = 1 2

MPI task timing breakdown:
Section |  min time  |  avg time  |  max time  |%varavg| %total
---------------------------------------------------------------
Pair    | 0.005427   | 0.005427   | 0.005427   |   0.0 | 52.66
Neigh   | 0.003981   | 0.003981   | 0.003981   |   0.0 | 38.63
Comm    | 0.000104   | 0.000104   | 0.000104   |   0.0 |  1.01
Output  | 0          | 0          | 0          |   0.0 |  0.00
Modify  | 0          | 0          | 0          |   0.0 |  0.00
Other   |            | 0.000794   |            |       |  7.70

Nlocal:    1000 ave 1000 max 1000 min
Histogram: 1 0 0 0 0 0 0 0 0 0
Nghost:    1902 ave 1902 max 1902 min
Histogram: 1 0 0 0 0 0 0 0 0 0
Neighs:    38134 ave 38134 max 38134 min
Histogram: 1 0 0 0 0 0 0 0 0 0

Total # of neighbors = 38134
Ave neighs/atom = 38.134
Neighbor list builds = 2
Dangerous builds = 2
displace_atoms liquidAtoms move -0.363 0 0
run 20
Per MPI rank memory allocation (min/avg/max) = 4.694 | 4.694 | 4.694 Mbytes
Step Atoms Temp Press TotEng 
     886     1000    0.2047322   -12635.756   -3599.1664 
     890     1000   0.21134049   -12638.267   -3599.1657 
     900     1000   0.22941422   -12647.179   -3599.1637 
     906     1000   0.24080571   -12654.246   -3599.1624 
Loop time of 0.033061 on 1 procs for 20 steps with 1000 atoms

Performance: 52.267 ns/day, 0.459 hours/ns, 604.942 timesteps/s
98.9% CPU use with 1 MPI tasks x no OpenMP threads

MPI task timing breakdown:
Section |  min time  |  avg time  |  max time  |%varavg| %total
---------------------------------------------------------------
Pair    | 0.03104    | 0.03104    | 0.03104    |   0.0 | 93.89
Neigh   | 0          | 0          | 0          |   0.0 |  0.00
Comm    | 0.000159   | 0.000159   | 0.000159   |   0.0 |  0.48
Output  | 0.001455   | 0.001455   | 0.001455   |   0.0 |  4.40
Modify  | 0.000345   | 0.000345   | 0.000345   |   0.0 |  1.04
Other   |            | 6.2e-05    |            |       |  0.19

Nlocal:    1000 ave 1000 max 1000 min
Histogram: 1 0 0 0 0 0 0 0 0 0
Nghost:    1902 ave 1902 max 1902 min
Histogram: 1 0 0 0 0 0 0 0 0 0
Neighs:    38149 ave 38149 max 38149 min
Histogram: 1 0 0 0 0 0 0 0 0 0

Total # of neighbors = 38149
Ave neighs/atom = 38.149
Neighbor list builds = 0
Dangerous builds = 0
minimize 1e-4 1e-4 10000 10000
WARNING: Using 'neigh_modify every 1 delay 0 check yes' setting during minimization (../min.cpp:168)
Per MPI rank memory allocation (min/avg/max) = 5.819 | 5.819 | 5.819 Mbytes
Step Atoms Temp Press TotEng 
     906     1000   0.24080571   -12654.246   -3599.1624 
     907     1000   0.24080571   -12698.185   -3599.1645 
Loop time of 0.010272 on 1 procs for 1 steps with 1000 atoms

99.2% CPU use with 1 MPI tasks x no OpenMP threads

Minimization stats:
  Stopping criterion = energy tolerance
  Energy initial, next-to-last, final = 
        -3599.19351148     -3599.19351148     -3599.19559012
  Force two-norm initial, final = 0.132793 0.20371
  Force max component initial, final = 0.0485465 0.08385
  Final line search alpha, max atom move = 1 0.08385
  Iterations, force evaluations = 1 2

MPI task timing breakdown:
Section |  min time  |  avg time  |  max time  |%varavg| %total
---------------------------------------------------------------
Pair    | 0.005372   | 0.005372   | 0.005372   |   0.0 | 52.30
Neigh   | 0.004012   | 0.004012   | 0.004012   |   0.0 | 39.06
Comm    | 0.000106   | 0.000106   | 0.000106   |   0.0 |  1.03
Output  | 0          | 0          | 0          |   0.0 |  0.00
Modify  | 0          | 0          | 0          |   0.0 |  0.00
Other   |            | 0.000782   |            |       |  7.61

Nlocal:    1000 ave 1000 max 1000 min
Histogram: 1 0 0 0 0 0 0 0 0 0
Nghost:    1901 ave 1901 max 1901 min
Histogram: 1 0 0 0 0 0 0 0 0 0
Neighs:    38146 ave 38146 max 38146 min
Histogram: 1 0 0 0 0 0 0 0 0 0

Total # of neighbors = 38146
Ave neighs/atom = 38.146
Neighbor list builds = 2
Dangerous builds = 2
displace_atoms liquidAtoms move -0.363 0 0
run 20
Per MPI rank memory allocation (min/avg/max) = 4.694 | 4.694 | 4.694 Mbytes
Step Atoms Temp Press TotEng 
     907     1000   0.24080571   -12756.338   -3599.3533 
     910     1000   0.24926424   -12760.532   -3599.3526 
     920     1000   0.28116685   -12779.878   -3599.3502 
     927     1000   0.30435308   -12798.112   -3599.3483 
Loop time of 0.033027 on 1 procs for 20 steps with 1000 atoms

Performance: 52.321 ns/day, 0.459 hours/ns, 605.565 timesteps/s
99.3% CPU use with 1 MPI tasks x no OpenMP threads

MPI task timing breakdown:
Section |  min time  |  avg time  |  max time  |%varavg| %total
---------------------------------------------------------------
Pair    | 0.031024   | 0.031024   | 0.031024   |   0.0 | 93.94
Neigh   | 0          | 0          | 0          |   0.0 |  0.00
Comm    | 0.000149   | 0.000149   | 0.000149   |   0.0 |  0.45
Output  | 0.001456   | 0.001456   | 0.001456   |   0.0 |  4.41
Modify  | 0.000341   | 0.000341   | 0.000341   |   0.0 |  1.03
Other   |            | 5.7e-05    |            |       |  0.17

Nlocal:    1000 ave 1000 max 1000 min
Histogram: 1 0 0 0 0 0 0 0 0 0
Nghost:    1901 ave 1901 max 1901 min
Histogram: 1 0 0 0 0 0 0 0 0 0
Neighs:    38193 ave 38193 max 38193 min
Histogram: 1 0 0 0 0 0 0 0 0 0

Total # of neighbors = 38193
Ave neighs/atom = 38.193
Neighbor list builds = 0
Dangerous builds = 0
minimize 1e-4 1e-4 10000 10000
WARNING: Using 'neigh_modify every 1 delay 0 check yes' setting during minimization (../min.cpp:168)
Per MPI rank memory allocation (min/avg/max) = 5.819 | 5.819 | 5.819 Mbytes
Step Atoms Temp Press TotEng 
     927     1000   0.30435308   -12798.112   -3599.3483 
     928     1000   0.30435308   -12935.107   -3599.3557 
Loop time of 0.010315 on 1 procs for 1 steps with 1000 atoms

99.2% CPU use with 1 MPI tasks x no OpenMP threads

Minimization stats:
  Stopping criterion = energy tolerance
  Energy initial, next-to-last, final = 
        -3599.38762631     -3599.38762631      -3599.3949875
  Force two-norm initial, final = 0.202613 0.375328
  Force max component initial, final = 0.05468 0.157993
  Final line search alpha, max atom move = 1 0.157993
  Iterations, force evaluations = 1 2

MPI task timing breakdown:
Section |  min time  |  avg time  |  max time  |%varavg| %total
---------------------------------------------------------------
Pair    | 0.005402   | 0.005402   | 0.005402   |   0.0 | 52.37
Neigh   | 0.004025   | 0.004025   | 0.004025   |   0.0 | 39.02
Comm    | 0.000104   | 0.000104   | 0.000104   |   0.0 |  1.01
Output  | 0          | 0          | 0          |   0.0 |  0.00
Modify  | 0          | 0          | 0          |   0.0 |  0.00
Other   |            | 0.000784   |            |       |  7.60

Nlocal:    1000 ave 1000 max 1000 min
Histogram: 1 0 0 0 0 0 0 0 0 0
Nghost:    1901 ave 1901 max 1901 min
Histogram: 1 0 0 0 0 0 0 0 0 0
Neighs:    38197 ave 38197 max 38197 min
Histogram: 1 0 0 0 0 0 0 0 0 0

Total # of neighbors = 38197
Ave neighs/atom = 38.197
Neighbor list builds = 2
Dangerous builds = 2
displace_atoms liquidAtoms move -0.363 0 0
run 20
Per MPI rank memory allocation (min/avg/max) = 4.694 | 4.694 | 4.694 Mbytes
Step Atoms Temp Press TotEng 
     928     1000   0.30435308       -13084   -3599.8725 
     930     1000   0.31782566   -13090.143   -3599.8719 
     940     1000   0.39796752   -13133.081   -3599.8687 
     948     1000    0.4666894   -13180.115   -3599.8655 
Loop time of 0.033465 on 1 procs for 20 steps with 1000 atoms

Performance: 51.636 ns/day, 0.465 hours/ns, 597.639 timesteps/s
99.0% CPU use with 1 MPI tasks x no OpenMP threads

MPI task timing breakdown:
Section |  min time  |  avg time  |  max time  |%varavg| %total
---------------------------------------------------------------
Pair    | 0.03147    | 0.03147    | 0.03147    |   0.0 | 94.04
Neigh   | 0          | 0          | 0          |   0.0 |  0.00
Comm    | 0.000157   | 0.000157   | 0.000157   |   0.0 |  0.47
Output  | 0.001452   | 0.001452   | 0.001452   |   0.0 |  4.34
Modify  | 0.000334   | 0.000334   | 0.000334   |   0.0 |  1.00
Other   |            | 5.2e-05    |            |       |  0.16

Nlocal:    1000 ave 1000 max 1000 min
Histogram: 1 0 0 0 0 0 0 0 0 0
Nghost:    1901 ave 1901 max 1901 min
Histogram: 1 0 0 0 0 0 0 0 0 0
Neighs:    38266 ave 38266 max 38266 min
Histogram: 1 0 0 0 0 0 0 0 0 0

Total # of neighbors = 38266
Ave neighs/atom = 38.266
Neighbor list builds = 0
Dangerous builds = 0
minimize 1e-4 1e-4 10000 10000
WARNING: Using 'neigh_modify every 1 delay 0 check yes' setting during minimization (../min.cpp:168)
Per MPI rank memory allocation (min/avg/max) = 5.819 | 5.819 | 5.819 Mbytes
Step Atoms Temp Press TotEng 
     948     1000    0.4666894   -13180.115   -3599.8655 
     949     1000    0.4666894    -13472.95   -3599.8868 
Loop time of 0.010425 on 1 procs for 1 steps with 1000 atoms

98.3% CPU use with 1 MPI tasks x no OpenMP threads

Minimization stats:
  Stopping criterion = energy tolerance
  Energy initial, next-to-last, final = 
        -3599.92575011     -3599.92575011     -3599.94708959
  Force two-norm initial, final = 0.382276 0.719887
  Force max component initial, final = 0.0858336 0.245998
  Final line search alpha, max atom move = 1 0.245998
  Iterations, force evaluations = 1 2

MPI task timing breakdown:
Section |  min time  |  avg time  |  max time  |%varavg| %total
---------------------------------------------------------------
Pair    | 0.005426   | 0.005426   | 0.005426   |   0.0 | 52.05
Neigh   | 0.004055   | 0.004055   | 0.004055   |   0.0 | 38.90
Comm    | 0.000103   | 0.000103   | 0.000103   |   0.0 |  0.99
Output  | 0          | 0          | 0          |   0.0 |  0.00
Modify  | 0          | 0          | 0          |   0.0 |  0.00
Other   |            | 0.000841   |            |       |  8.07

Nlocal:    1000 ave 1000 max 1000 min
Histogram: 1 0 0 0 0 0 0 0 0 0
Nghost:    1903 ave 1903 max 1903 min
Histogram: 1 0 0 0 0 0 0 0 0 0
Neighs:    38259 ave 38259 max 38259 min
Histogram: 1 0 0 0 0 0 0 0 0 0

Total # of neighbors = 38259
Ave neighs/atom = 38.259
Neighbor list builds = 2
Dangerous builds = 2
displace_atoms liquidAtoms move -0.363 0 0
run 20
Per MPI rank memory allocation (min/avg/max) = 4.694 | 4.694 | 4.694 Mbytes
Step Atoms Temp Press TotEng 
     949     1000    0.4666894   -13685.391    -3601.034 
     950     1000   0.48439449   -13692.281   -3601.0336 
     960     1000   0.69525733   -13778.625   -3601.0282 
     969     1000    0.9000201   -13882.287   -3601.0216 
Loop time of 0.035934 on 1 procs for 20 steps with 1000 atoms

Performance: 48.088 ns/day, 0.499 hours/ns, 556.576 timesteps/s
98.6% CPU use with 1 MPI tasks x no OpenMP threads

MPI task timing breakdown:
Section |  min time  |  avg time  |  max time  |%varavg| %total
---------------------------------------------------------------
Pair    | 0.031731   | 0.031731   | 0.031731   |   0.0 | 88.30
Neigh   | 0.002013   | 0.002013   | 0.002013   |   0.0 |  5.60
Comm    | 0.000191   | 0.000191   | 0.000191   |   0.0 |  0.53
Output  | 0.001594   | 0.001594   | 0.001594   |   0.0 |  4.44
Modify  | 0.000339   | 0.000339   | 0.000339   |   0.0 |  0.94
Other   |            | 6.6e-05    |            |       |  0.18

Nlocal:    1000 ave 1000 max 1000 min
Histogram: 1 0 0 0 0 0 0 0 0 0
Nghost:    1903 ave 1903 max 1903 min
Histogram: 1 0 0 0 0 0 0 0 0 0
Neighs:    38348 ave 38348 max 38348 min
Histogram: 1 0 0 0 0 0 0 0 0 0

Total # of neighbors = 38348
Ave neighs/atom = 38.348
Neighbor list builds = 1
Dangerous builds = 0
minimize 1e-4 1e-4 10000 10000
WARNING: Using 'neigh_modify every 1 delay 0 check yes' setting during minimization (../min.cpp:168)
Per MPI rank memory allocation (min/avg/max) = 5.819 | 5.819 | 5.819 Mbytes
Step Atoms Temp Press TotEng 
     969     1000    0.9000201   -13882.287   -3601.0216 
     970     1000    0.9000201   -14222.597   -3601.0696 
Loop time of 0.010495 on 1 procs for 1 steps with 1000 atoms

98.5% CPU use with 1 MPI tasks x no OpenMP threads

Minimization stats:
  Stopping criterion = energy tolerance
  Energy initial, next-to-last, final = 
         -3601.1377762      -3601.1377762     -3601.18585005
  Force two-norm initial, final = 0.653777 1.09553
  Force max component initial, final = 0.114527 0.427416
  Final line search alpha, max atom move = 0.873157 0.373202
  Iterations, force evaluations = 1 2

MPI task timing breakdown:
Section |  min time  |  avg time  |  max time  |%varavg| %total
---------------------------------------------------------------
Pair    | 0.005408   | 0.005408   | 0.005408   |   0.0 | 51.53
Neigh   | 0.004141   | 0.004141   | 0.004141   |   0.0 | 39.46
Comm    | 0.000104   | 0.000104   | 0.000104   |   0.0 |  0.99
Output  | 0          | 0          | 0          |   0.0 |  0.00
Modify  | 0          | 0          | 0          |   0.0 |  0.00
Other   |            | 0.000842   |            |       |  8.02

Nlocal:    1000 ave 1000 max 1000 min
Histogram: 1 0 0 0 0 0 0 0 0 0
Nghost:    1903 ave 1903 max 1903 min
Histogram: 1 0 0 0 0 0 0 0 0 0
Neighs:    38341 ave 38341 max 38341 min
Histogram: 1 0 0 0 0 0 0 0 0 0

Total # of neighbors = 38341
Ave neighs/atom = 38.341
Neighbor list builds = 2
Dangerous builds = 2
displace_atoms liquidAtoms move -0.363 0 0
run 20
Per MPI rank memory allocation (min/avg/max) = 4.694 | 4.694 | 4.694 Mbytes
Step Atoms Temp Press TotEng 
     970     1000    0.9000201   -14521.466   -3603.1513 
     980     1000    1.4314085   -14678.207   -3603.1406 
     990     1000    2.0298393   -14889.205   -3603.1245 
Loop time of 0.034447 on 1 procs for 20 steps with 1000 atoms

Performance: 50.164 ns/day, 0.478 hours/ns, 580.602 timesteps/s
99.5% CPU use with 1 MPI tasks x no OpenMP threads

MPI task timing breakdown:
Section |  min time  |  avg time  |  max time  |%varavg| %total
---------------------------------------------------------------
Pair    | 0.030417   | 0.030417   | 0.030417   |   0.0 | 88.30
Neigh   | 0.002026   | 0.002026   | 0.002026   |   0.0 |  5.88
Comm    | 0.000194   | 0.000194   | 0.000194   |   0.0 |  0.56
Output  | 0.001429   | 0.001429   | 0.001429   |   0.0 |  4.15
Modify  | 0.000329   | 0.000329   | 0.000329   |   0.0 |  0.96
Other   |            | 5.2e-05    |            |       |  0.15

Nlocal:    1000 ave 1000 max 1000 min
Histogram: 1 0 0 0 0 0 0 0 0 0
Nghost:    1903 ave 1903 max 1903 min
Histogram: 1 0 0 0 0 0 0 0 0 0
Neighs:    38460 ave 38460 max 38460 min
Histogram: 1 0 0 0 0 0 0 0 0 0

Total # of neighbors = 38460
Ave neighs/atom = 38.46
Neighbor list builds = 1
Dangerous builds = 0
minimize 1e-4 1e-4 10000 10000
WARNING: Using 'neigh_modify every 1 delay 0 check yes' setting during minimization (../min.cpp:168)
Per MPI rank memory allocation (min/avg/max) = 5.819 | 5.819 | 5.819 Mbytes
Step Atoms Temp Press TotEng 
     990     1000    2.0298393   -14889.205   -3603.1245 
     991     1000    2.0298393   -15315.462   -3603.2229 
Loop time of 0.010262 on 1 procs for 1 steps with 1000 atoms

99.5% CPU use with 1 MPI tasks x no OpenMP threads

Minimization stats:
  Stopping criterion = energy tolerance
  Energy initial, next-to-last, final = 
         -3603.3866502      -3603.3866502     -3603.48505459
  Force two-norm initial, final = 1.11354 1.55561
  Force max component initial, final = 0.361762 0.468522
  Final line search alpha, max atom move = 0.276425 0.129511
  Iterations, force evaluations = 1 2

MPI task timing breakdown:
Section |  min time  |  avg time  |  max time  |%varavg| %total
---------------------------------------------------------------
Pair    | 0.005382   | 0.005382   | 0.005382   |   0.0 | 52.45
Neigh   | 0.004009   | 0.004009   | 0.004009   |   0.0 | 39.07
Comm    | 0.000103   | 0.000103   | 0.000103   |   0.0 |  1.00
Output  | 0          | 0          | 0          |   0.0 |  0.00
Modify  | 0          | 0          | 0          |   0.0 |  0.00
Other   |            | 0.000768   |            |       |  7.48

Nlocal:    1000 ave 1000 max 1000 min
Histogram: 1 0 0 0 0 0 0 0 0 0
Nghost:    1903 ave 1903 max 1903 min
Histogram: 1 0 0 0 0 0 0 0 0 0
Neighs:    38455 ave 38455 max 38455 min
Histogram: 1 0 0 0 0 0 0 0 0 0

Total # of neighbors = 38455
Ave neighs/atom = 38.455
Neighbor list builds = 2
Dangerous builds = 2
displace_atoms liquidAtoms move -0.363 0 0
run 20
Per MPI rank memory allocation (min/avg/max) = 4.694 | 4.694 | 4.694 Mbytes
Step Atoms Temp Press TotEng 
     991     1000    2.0298393    -15682.26    -3606.703 
    1000     1000    3.2165502    -15926.46   -3606.6812 
    1010     1000    4.7008229   -16271.675   -3606.6443 
    1011     1000    4.8538194   -16310.306   -3606.6398 
Loop time of 0.037198 on 1 procs for 20 steps with 1000 atoms

Performance: 46.454 ns/day, 0.517 hours/ns, 537.663 timesteps/s
99.7% CPU use with 1 MPI tasks x no OpenMP threads

MPI task timing breakdown:
Section |  min time  |  avg time  |  max time  |%varavg| %total
---------------------------------------------------------------
Pair    | 0.031095   | 0.031095   | 0.031095   |   0.0 | 83.59
Neigh   | 0.004044   | 0.004044   | 0.004044   |   0.0 | 10.87
Comm    | 0.000239   | 0.000239   | 0.000239   |   0.0 |  0.64
Output  | 0.001436   | 0.001436   | 0.001436   |   0.0 |  3.86
Modify  | 0.000332   | 0.000332   | 0.000332   |   0.0 |  0.89
Other   |            | 5.2e-05    |            |       |  0.14

Nlocal:    1000 ave 1000 max 1000 min
Histogram: 1 0 0 0 0 0 0 0 0 0
Nghost:    1903 ave 1903 max 1903 min
Histogram: 1 0 0 0 0 0 0 0 0 0
Neighs:    38600 ave 38600 max 38600 min
Histogram: 1 0 0 0 0 0 0 0 0 0

Total # of neighbors = 38600
Ave neighs/atom = 38.6
Neighbor list builds = 2
Dangerous builds = 2
minimize 1e-4 1e-4 10000 10000
WARNING: Using 'neigh_modify every 1 delay 0 check yes' setting during minimization (../min.cpp:168)
Per MPI rank memory allocation (min/avg/max) = 5.819 | 5.819 | 5.819 Mbytes
Step Atoms Temp Press TotEng 
    1011     1000    4.8538194   -16310.306   -3606.6398 
    1012     1000    4.8538194   -16986.737   -3606.8829 
Loop time of 0.01036 on 1 procs for 1 steps with 1000 atoms

99.5% CPU use with 1 MPI tasks x no OpenMP threads

Minimization stats:
  Stopping criterion = energy tolerance
  Energy initial, next-to-last, final = 
         -3607.2665812      -3607.2665812     -3607.50968875
  Force two-norm initial, final = 1.66023 2.53814
  Force max component initial, final = 0.382667 1.00607
  Final line search alpha, max atom move = 0.261324 0.26291
  Iterations, force evaluations = 1 2

MPI task timing breakdown:
Section |  min time  |  avg time  |  max time  |%varavg| %total
---------------------------------------------------------------
Pair    | 0.005397   | 0.005397   | 0.005397   |   0.0 | 52.09
Neigh   | 0.004072   | 0.004072   | 0.004072   |   0.0 | 39.31
Comm    | 0.000106   | 0.000106   | 0.000106   |   0.0 |  1.02
Output  | 0          | 0          | 0          |   0.0 |  0.00
Modify  | 0          | 0          | 0          |   0.0 |  0.00
Other   |            | 0.000785   |            |       |  7.58

Nlocal:    1000 ave 1000 max 1000 min
Histogram: 1 0 0 0 0 0 0 0 0 0
Nghost:    1903 ave 1903 max 1903 min
Histogram: 1 0 0 0 0 0 0 0 0 0
Neighs:    38591 ave 38591 max 38591 min
Histogram: 1 0 0 0 0 0 0 0 0 0

Total # of neighbors = 38591
Ave neighs/atom = 38.591
Neighbor list builds = 2
Dangerous builds = 2
displace_atoms liquidAtoms move -0.363 0 0
run 20
Per MPI rank memory allocation (min/avg/max) = 4.694 | 4.694 | 4.694 Mbytes
Step Atoms Temp Press TotEng 
    1012     1000    4.8538194   -17350.623   -3612.2344 
    1020     1000    7.3826646   -17685.547   -3612.1889 
    1030     1000    10.914272   -18184.145   -3612.1031 
    1032     1000    11.632777   -18299.395   -3612.0819 
Loop time of 0.037417 on 1 procs for 20 steps with 1000 atoms

Performance: 46.182 ns/day, 0.520 hours/ns, 534.516 timesteps/s
99.8% CPU use with 1 MPI tasks x no OpenMP threads

MPI task timing breakdown:
Section |  min time  |  avg time  |  max time  |%varavg| %total
---------------------------------------------------------------
Pair    | 0.031324   | 0.031324   | 0.031324   |   0.0 | 83.72
Neigh   | 0.004067   | 0.004067   | 0.004067   |   0.0 | 10.87
Comm    | 0.000235   | 0.000235   | 0.000235   |   0.0 |  0.63
Output  | 0.001423   | 0.001423   | 0.001423   |   0.0 |  3.80
Modify  | 0.000323   | 0.000323   | 0.000323   |   0.0 |  0.86
Other   |            | 4.5e-05    |            |       |  0.12

Nlocal:    1000 ave 1000 max 1000 min
Histogram: 1 0 0 0 0 0 0 0 0 0
Nghost:    1903 ave 1903 max 1903 min
Histogram: 1 0 0 0 0 0 0 0 0 0
Neighs:    38726 ave 38726 max 38726 min
Histogram: 1 0 0 0 0 0 0 0 0 0

Total # of neighbors = 38726
Ave neighs/atom = 38.726
Neighbor list builds = 2
Dangerous builds = 2
minimize 1e-4 1e-4 10000 10000
WARNING: Using 'neigh_modify every 1 delay 0 check yes' setting during minimization (../min.cpp:168)
Per MPI rank memory allocation (min/avg/max) = 5.819 | 5.819 | 5.819 Mbytes
Step Atoms Temp Press TotEng 
    1032     1000    11.632777   -18299.395   -3612.0819 
    1040     1000    11.632777   -26985.511    -3620.013 
    1050     1000    11.632777   -33800.015   -3632.0942 
    1060     1000    11.632777    -36633.22   -3649.8411 
    1070     1000    11.632777   -31430.937   -3664.5651 
    1080     1000    11.632777   -20389.446   -3674.6572 
    1083     1000    11.632777   -19134.282   -3676.0695 
Loop time of 0.225169 on 1 procs for 51 steps with 1000 atoms

99.3% CPU use with 1 MPI tasks x no OpenMP threads

Minimization stats:
  Stopping criterion = energy tolerance
  Energy initial, next-to-last, final = 
        -3613.58403572     -3677.27612667     -3677.57163708
  Force two-norm initial, final = 2.29281 1.4705
  Force max component initial, final = 0.641222 0.269535
  Final line search alpha, max atom move = 0.263876 0.0711238
  Iterations, force evaluations = 51 56

MPI task timing breakdown:
Section |  min time  |  avg time  |  max time  |%varavg| %total
---------------------------------------------------------------
Pair    | 0.10636    | 0.10636    | 0.10636    |   0.0 | 47.23
Neigh   | 0.10947    | 0.10947    | 0.10947    |   0.0 | 48.62
Comm    | 0.002591   | 0.002591   | 0.002591   |   0.0 |  1.15
Output  | 0.00367    | 0.00367    | 0.00367    |   0.0 |  1.63
Modify  | 0          | 0          | 0          |   0.0 |  0.00
Other   |            | 0.003084   |            |       |  1.37

Nlocal:    1000 ave 1000 max 1000 min
Histogram: 1 0 0 0 0 0 0 0 0 0
Nghost:    1903 ave 1903 max 1903 min
Histogram: 1 0 0 0 0 0 0 0 0 0
Neighs:    40206 ave 40206 max 40206 min
Histogram: 1 0 0 0 0 0 0 0 0 0

Total # of neighbors = 40206
Ave neighs/atom = 40.206
Neighbor list builds = 53
Dangerous builds = 50
displace_atoms liquidAtoms move -0.363 0 0
run 20
Per MPI rank memory allocation (min/avg/max) = 4.694 | 4.694 | 4.694 Mbytes
Step Atoms Temp Press TotEng 
    1083     1000    11.632777   -10920.711   -3662.0893 
    1090     1000    9.5538038   -10866.298   -3662.0393 
    1100     1000    57.751967   -11488.104   -3661.7578 
    1103     1000    75.260708   -11714.829   -3661.5718 
Loop time of 0.039826 on 1 procs for 20 steps with 1000 atoms

Performance: 43.389 ns/day, 0.553 hours/ns, 502.185 timesteps/s
99.3% CPU use with 1 MPI tasks x no OpenMP threads

MPI task timing breakdown:
Section |  min time  |  avg time  |  max time  |%varavg| %total
---------------------------------------------------------------
Pair    | 0.03352    | 0.03352    | 0.03352    |   0.0 | 84.17
Neigh   | 0.004224   | 0.004224   | 0.004224   |   0.0 | 10.61
Comm    | 0.00023    | 0.00023    | 0.00023    |   0.0 |  0.58
Output  | 0.001462   | 0.001462   | 0.001462   |   0.0 |  3.67
Modify  | 0.000335   | 0.000335   | 0.000335   |   0.0 |  0.84
Other   |            | 5.5e-05    |            |       |  0.14

Nlocal:    1000 ave 1000 max 1000 min
Histogram: 1 0 0 0 0 0 0 0 0 0
Nghost:    1903 ave 1903 max 1903 min
Histogram: 1 0 0 0 0 0 0 0 0 0
Neighs:    40795 ave 40795 max 40795 min
Histogram: 1 0 0 0 0 0 0 0 0 0

Total # of neighbors = 40795
Ave neighs/atom = 40.795
Neighbor list builds = 2
Dangerous builds = 2
minimize 1e-4 1e-4 10000 10000
WARNING: Using 'neigh_modify every 1 delay 0 check yes' setting during minimization (../min.cpp:168)
Per MPI rank memory allocation (min/avg/max) = 5.819 | 5.819 | 5.819 Mbytes
Step Atoms Temp Press TotEng 
    1103     1000    75.260708   -11714.829   -3661.5718 
    1110     1000    75.260708   -11471.324   -3670.8215 
Loop time of 0.045509 on 1 procs for 7 steps with 1000 atoms

99.8% CPU use with 1 MPI tasks x no OpenMP threads

Minimization stats:
  Stopping criterion = energy tolerance
  Energy initial, next-to-last, final = 
        -3671.29025081     -3680.26502469     -3680.53996019
  Force two-norm initial, final = 13.4702 1.86757
  Force max component initial, final = 2.08367 0.438694
  Final line search alpha, max atom move = 0.157674 0.0691706
  Iterations, force evaluations = 7 12

MPI task timing breakdown:
Section |  min time  |  avg time  |  max time  |%varavg| %total
---------------------------------------------------------------
Pair    | 0.024908   | 0.024908   | 0.024908   |   0.0 | 54.73
Neigh   | 0.019068   | 0.019068   | 0.019068   |   0.0 | 41.90
Comm    | 0.000453   | 0.000453   | 0.000453   |   0.0 |  1.00
Output  | 0          | 0          | 0          |   0.0 |  0.00
Modify  | 0          | 0          | 0          |   0.0 |  0.00
Other   |            | 0.00108    |            |       |  2.37

Nlocal:    1000 ave 1000 max 1000 min
Histogram: 1 0 0 0 0 0 0 0 0 0
Nghost:    1904 ave 1904 max 1904 min
Histogram: 1 0 0 0 0 0 0 0 0 0
Neighs:    40630 ave 40630 max 40630 min
Histogram: 1 0 0 0 0 0 0 0 0 0

Total # of neighbors = 40630
Ave neighs/atom = 40.63
Neighbor list builds = 9
Dangerous builds = 7
displace_atoms liquidAtoms move -0.363 0 0
run 20
Per MPI rank memory allocation (min/avg/max) = 4.694 | 4.694 | 4.694 Mbytes
Step Atoms Temp Press TotEng 
    1110     1000    75.260708    -2483.979   -3653.8434 
    1120     1000    169.72036    -3624.326   -3652.6736 
    1130     1000    182.28132   -3387.3983   -3650.9918 
Loop time of 0.03937 on 1 procs for 20 steps with 1000 atoms

Performance: 43.891 ns/day, 0.547 hours/ns, 508.001 timesteps/s
99.8% CPU use with 1 MPI tasks x no OpenMP threads

MPI task timing breakdown:
Section |  min time  |  avg time  |  max time  |%varavg| %total
---------------------------------------------------------------
Pair    | 0.033097   | 0.033097   | 0.033097   |   0.0 | 84.07
Neigh   | 0.004236   | 0.004236   | 0.004236   |   0.0 | 10.76
Comm    | 0.000233   | 0.000233   | 0.000233   |   0.0 |  0.59
Output  | 0.001425   | 0.001425   | 0.001425   |   0.0 |  3.62
Modify  | 0.000327   | 0.000327   | 0.000327   |   0.0 |  0.83
Other   |            | 5.2e-05    |            |       |  0.13

Nlocal:    1000 ave 1000 max 1000 min
Histogram: 1 0 0 0 0 0 0 0 0 0
Nghost:    1904 ave 1904 max 1904 min
Histogram: 1 0 0 0 0 0 0 0 0 0
Neighs:    41268 ave 41268 max 41268 min
Histogram: 1 0 0 0 0 0 0 0 0 0

Total # of neighbors = 41268
Ave neighs/atom = 41.268
Neighbor list builds = 2
Dangerous builds = 2
minimize 1e-4 1e-4 10000 10000
WARNING: Using 'neigh_modify every 1 delay 0 check yes' setting during minimization (../min.cpp:168)
Per MPI rank memory allocation (min/avg/max) = 5.819 | 5.819 | 5.819 Mbytes
Step Atoms Temp Press TotEng 
    1130     1000    182.28132   -3387.3983   -3650.9918 
    1136     1000    182.28132   -4034.8227   -3657.6124 
Loop time of 0.043647 on 1 procs for 6 steps with 1000 atoms

99.7% CPU use with 1 MPI tasks x no OpenMP threads

Minimization stats:
  Stopping criterion = energy tolerance
  Energy initial, next-to-last, final = 
        -3674.52990324      -3680.8429598     -3681.15054354
  Force two-norm initial, final = 12.5594 1.93497
  Force max component initial, final = 1.59443 0.311024
  Final line search alpha, max atom move = 0.219854 0.0683799
  Iterations, force evaluations = 6 12

MPI task timing breakdown:
Section |  min time  |  avg time  |  max time  |%varavg| %total
---------------------------------------------------------------
Pair    | 0.025348   | 0.025348   | 0.025348   |   0.0 | 58.08
Neigh   | 0.016838   | 0.016838   | 0.016838   |   0.0 | 38.58
Comm    | 0.000418   | 0.000418   | 0.000418   |   0.0 |  0.96
Output  | 0          | 0          | 0          |   0.0 |  0.00
Modify  | 0          | 0          | 0          |   0.0 |  0.00
Other   |            | 0.001043   |            |       |  2.39

Nlocal:    1000 ave 1000 max 1000 min
Histogram: 1 0 0 0 0 0 0 0 0 0
Nghost:    1902 ave 1902 max 1902 min
Histogram: 1 0 0 0 0 0 0 0 0 0
Neighs:    40990 ave 40990 max 40990 min
Histogram: 1 0 0 0 0 0 0 0 0 0

Total # of neighbors = 40990
Ave neighs/atom = 40.99
Neighbor list builds = 8
Dangerous builds = 4
displace_atoms liquidAtoms move -0.363 0 0
run 20
Per MPI rank memory allocation (min/avg/max) = 4.694 | 4.694 | 4.694 Mbytes
Step Atoms Temp Press TotEng 
    1136     1000    182.28132    5673.2846   -3636.7015 
    1140     1000    251.78072    4792.6618   -3635.9194 
    1150     1000     325.0891    4252.5651   -3633.2365 
    1156     1000    298.14049    5077.6198   -3631.5795 
Loop time of 0.040342 on 1 procs for 20 steps with 1000 atoms

Performance: 42.834 ns/day, 0.560 hours/ns, 495.761 timesteps/s
99.8% CPU use with 1 MPI tasks x no OpenMP threads

MPI task timing breakdown:
Section |  min time  |  avg time  |  max time  |%varavg| %total
---------------------------------------------------------------
Pair    | 0.034068   | 0.034068   | 0.034068   |   0.0 | 84.45
Neigh   | 0.004237   | 0.004237   | 0.004237   |   0.0 | 10.50
Comm    | 0.00023    | 0.00023    | 0.00023    |   0.0 |  0.57
Output  | 0.001427   | 0.001427   | 0.001427   |   0.0 |  3.54
Modify  | 0.000326   | 0.000326   | 0.000326   |   0.0 |  0.81
Other   |            | 5.4e-05    |            |       |  0.13

Nlocal:    1000 ave 1000 max 1000 min
Histogram: 1 0 0 0 0 0 0 0 0 0
Nghost:    1902 ave 1902 max 1902 min
Histogram: 1 0 0 0 0 0 0 0 0 0
Neighs:    41726 ave 41726 max 41726 min
Histogram: 1 0 0 0 0 0 0 0 0 0

Total # of neighbors = 41726
Ave neighs/atom = 41.726
Neighbor list builds = 2
Dangerous builds = 2
minimize 1e-4 1e-4 10000 10000
WARNING: Using 'neigh_modify every 1 delay 0 check yes' setting during minimization (../min.cpp:168)
Per MPI rank memory allocation (min/avg/max) = 5.819 | 5.819 | 5.819 Mbytes
Step Atoms Temp Press TotEng 
    1156     1000    298.14049    5077.6198   -3631.5795 
    1160     1000    298.14049    3305.2507   -3640.7149 
    1168     1000    298.14049   -3727.4839   -3644.5615 
Loop time of 0.076047 on 1 procs for 12 steps with 1000 atoms

99.7% CPU use with 1 MPI tasks x no OpenMP threads

Minimization stats:
  Stopping criterion = energy tolerance
  Energy initial, next-to-last, final = 
        -3670.07868599     -3682.69975857     -3683.06060656
  Force two-norm initial, final = 16.9931 2.18901
  Force max component initial, final = 2.08608 0.580341
  Final line search alpha, max atom move = 0.125163 0.0726372
  Iterations, force evaluations = 12 20

MPI task timing breakdown:
Section |  min time  |  avg time  |  max time  |%varavg| %total
---------------------------------------------------------------
Pair    | 0.041432   | 0.041432   | 0.041432   |   0.0 | 54.48
Neigh   | 0.031751   | 0.031751   | 0.031751   |   0.0 | 41.75
Comm    | 0.000757   | 0.000757   | 0.000757   |   0.0 |  1.00
Output  | 0.000712   | 0.000712   | 0.000712   |   0.0 |  0.94
Modify  | 0          | 0          | 0          |   0.0 |  0.00
Other   |            | 0.001395   |            |       |  1.83

Nlocal:    1000 ave 1000 max 1000 min
Histogram: 1 0 0 0 0 0 0 0 0 0
Nghost:    1897 ave 1897 max 1897 min
Histogram: 1 0 0 0 0 0 0 0 0 0
Neighs:    41085 ave 41085 max 41085 min
Histogram: 1 0 0 0 0 0 0 0 0 0

Total # of neighbors = 41085
Ave neighs/atom = 41.085
Neighbor list builds = 15
Dangerous builds = 11
displace_atoms liquidAtoms move -0.363 0 0
run 20
Per MPI rank memory allocation (min/avg/max) = 4.694 | 4.694 | 4.694 Mbytes
Step Atoms Temp Press TotEng 
    1168     1000    298.14049    6052.6942   -3625.0171 
    1170     1000    339.93315    5511.7038   -3624.4676 
    1180     1000    441.41704    4570.7475   -3621.0042 
    1188     1000    398.06392    6000.9688    -3618.154 
Loop time of 0.040676 on 1 procs for 20 steps with 1000 atoms

Performance: 42.482 ns/day, 0.565 hours/ns, 491.690 timesteps/s
99.6% CPU use with 1 MPI tasks x no OpenMP threads

MPI task timing breakdown:
Section |  min time  |  avg time  |  max time  |%varavg| %total
---------------------------------------------------------------
Pair    | 0.034238   | 0.034238   | 0.034238   |   0.0 | 84.17
Neigh   | 0.004321   | 0.004321   | 0.004321   |   0.0 | 10.62
Comm    | 0.000247   | 0.000247   | 0.000247   |   0.0 |  0.61
Output  | 0.001453   | 0.001453   | 0.001453   |   0.0 |  3.57
Modify  | 0.00035    | 0.00035    | 0.00035    |   0.0 |  0.86
Other   |            | 6.7e-05    |            |       |  0.16

Nlocal:    1000 ave 1000 max 1000 min
Histogram: 1 0 0 0 0 0 0 0 0 0
Nghost:    1897 ave 1897 max 1897 min
Histogram: 1 0 0 0 0 0 0 0 0 0
Neighs:    41776 ave 41776 max 41776 min
Histogram: 1 0 0 0 0 0 0 0 0 0

Total # of neighbors = 41776
Ave neighs/atom = 41.776
Neighbor list builds = 2
Dangerous builds = 2
minimize 1e-4 1e-4 10000 10000
WARNING: Using 'neigh_modify every 1 delay 0 check yes' setting during minimization (../min.cpp:168)
Per MPI rank memory allocation (min/avg/max) = 5.819 | 5.819 | 5.819 Mbytes
Step Atoms Temp Press TotEng 
    1188     1000    398.06392    6000.9688    -3618.154 
    1190     1000    398.06392    3961.7893   -3628.9977 
    1194     1000    398.06392    3081.8947   -3630.9968 
Loop time of 0.049391 on 1 procs for 6 steps with 1000 atoms

99.8% CPU use with 1 MPI tasks x no OpenMP threads

Minimization stats:
  Stopping criterion = energy tolerance
  Energy initial, next-to-last, final = 
        -3669.55633895      -3682.0863573     -3682.39918852
  Force two-norm initial, final = 18.3255 2.0624
  Force max component initial, final = 2.44771 0.563881
  Final line search alpha, max atom move = 0.17557 0.0990005
  Iterations, force evaluations = 6 11

MPI task timing breakdown:
Section |  min time  |  avg time  |  max time  |%varavg| %total
---------------------------------------------------------------
Pair    | 0.023686   | 0.023686   | 0.023686   |   0.0 | 47.96
Neigh   | 0.023403   | 0.023403   | 0.023403   |   0.0 | 47.38
Comm    | 0.000525   | 0.000525   | 0.000525   |   0.0 |  1.06
Output  | 0.000712   | 0.000712   | 0.000712   |   0.0 |  1.44
Modify  | 0          | 0          | 0          |   0.0 |  0.00
Other   |            | 0.001065   |            |       |  2.16

Nlocal:    1000 ave 1000 max 1000 min
Histogram: 1 0 0 0 0 0 0 0 0 0
Nghost:    1895 ave 1895 max 1895 min
Histogram: 1 0 0 0 0 0 0 0 0 0
Neighs:    41425 ave 41425 max 41425 min
Histogram: 1 0 0 0 0 0 0 0 0 0

Total # of neighbors = 41425
Ave neighs/atom = 41.425
Neighbor list builds = 11
Dangerous builds = 11
displace_atoms liquidAtoms move -0.363 0 0
run 20
Per MPI rank memory allocation (min/avg/max) = 4.694 | 4.694 | 4.694 Mbytes
Step Atoms Temp Press TotEng 
    1194     1000    398.06392    13177.515   -3609.2474 
    1200     1000    516.47887    11777.904   -3606.9719 
    1210     1000    528.17901     12500.48   -3602.6487 
    1214     1000    485.87023    13712.084   -3601.0414 
Loop time of 0.042354 on 1 procs for 20 steps with 1000 atoms

Performance: 40.799 ns/day, 0.588 hours/ns, 472.210 timesteps/s
99.3% CPU use with 1 MPI tasks x no OpenMP threads

MPI task timing breakdown:
Section |  min time  |  avg time  |  max time  |%varavg| %total
---------------------------------------------------------------
Pair    | 0.03569    | 0.03569    | 0.03569    |   0.0 | 84.27
Neigh   | 0.004535   | 0.004535   | 0.004535   |   0.0 | 10.71
Comm    | 0.000237   | 0.000237   | 0.000237   |   0.0 |  0.56
Output  | 0.001483   | 0.001483   | 0.001483   |   0.0 |  3.50
Modify  | 0.000345   | 0.000345   | 0.000345   |   0.0 |  0.81
Other   |            | 6.4e-05    |            |       |  0.15

Nlocal:    1000 ave 1000 max 1000 min
Histogram: 1 0 0 0 0 0 0 0 0 0
Nghost:    1897 ave 1897 max 1897 min
Histogram: 1 0 0 0 0 0 0 0 0 0
Neighs:    42345 ave 42345 max 42345 min
Histogram: 1 0 0 0 0 0 0 0 0 0

Total # of neighbors = 42345
Ave neighs/atom = 42.345
Neighbor list builds = 2
Dangerous builds = 2
minimize 1e-4 1e-4 10000 10000
WARNING: Using 'neigh_modify every 1 delay 0 check yes' setting during minimization (../min.cpp:168)
Per MPI rank memory allocation (min/avg/max) = 5.819 | 5.819 | 5.819 Mbytes
Step Atoms Temp Press TotEng 
    1214     1000    485.87023    13712.084   -3601.0414 
    1220     1000    485.87023    9760.0707   -3617.7384 
    1230     1000    485.87023    2220.6621    -3622.829 
    1231     1000    485.87023    1677.3626   -3623.1773 
Loop time of 0.104331 on 1 procs for 17 steps with 1000 atoms

98.5% CPU use with 1 MPI tasks x no OpenMP threads

Minimization stats:
  Stopping criterion = energy tolerance
  Energy initial, next-to-last, final = 
        -3663.78221741     -3685.56986921     -3685.91816928
  Force two-norm initial, final = 20.5183 1.94107
  Force max component initial, final = 2.6797 0.182538
  Final line search alpha, max atom move = 0.132054 0.0241049
  Iterations, force evaluations = 17 25

MPI task timing breakdown:
Section |  min time  |  avg time  |  max time  |%varavg| %total
---------------------------------------------------------------
Pair    | 0.053043   | 0.053043   | 0.053043   |   0.0 | 50.84
Neigh   | 0.047178   | 0.047178   | 0.047178   |   0.0 | 45.22
Comm    | 0.001075   | 0.001075   | 0.001075   |   0.0 |  1.03
Output  | 0.00145    | 0.00145    | 0.00145    |   0.0 |  1.39
Modify  | 0          | 0          | 0          |   0.0 |  0.00
Other   |            | 0.001585   |            |       |  1.52

Nlocal:    1000 ave 1000 max 1000 min
Histogram: 1 0 0 0 0 0 0 0 0 0
Nghost:    1895 ave 1895 max 1895 min
Histogram: 1 0 0 0 0 0 0 0 0 0
Neighs:    41298 ave 41298 max 41298 min
Histogram: 1 0 0 0 0 0 0 0 0 0

Total # of neighbors = 41298
Ave neighs/atom = 41.298
Neighbor list builds = 22
Dangerous builds = 19
displace_atoms liquidAtoms move -0.363 0 0
run 20
Per MPI rank memory allocation (min/avg/max) = 4.694 | 4.694 | 4.694 Mbytes
Step Atoms Temp Press TotEng 
    1231     1000    485.87023    11866.174   -3602.0802 
    1240     1000    632.15058    10239.283   -3598.0871 
    1250     1000    586.54868    11987.173    -3593.403 
    1251     1000     574.3923    12347.179   -3592.9618 
Loop time of 0.041135 on 1 procs for 20 steps with 1000 atoms

Performance: 42.008 ns/day, 0.571 hours/ns, 486.204 timesteps/s
99.6% CPU use with 1 MPI tasks x no OpenMP threads

MPI task timing breakdown:
Section |  min time  |  avg time  |  max time  |%varavg| %total
---------------------------------------------------------------
Pair    | 0.03477    | 0.03477    | 0.03477    |   0.0 | 84.53
Neigh   | 0.004277   | 0.004277   | 0.004277   |   0.0 | 10.40
Comm    | 0.000231   | 0.000231   | 0.000231   |   0.0 |  0.56
Output  | 0.001475   | 0.001475   | 0.001475   |   0.0 |  3.59
Modify  | 0.000328   | 0.000328   | 0.000328   |   0.0 |  0.80
Other   |            | 5.4e-05    |            |       |  0.13

Nlocal:    1000 ave 1000 max 1000 min
Histogram: 1 0 0 0 0 0 0 0 0 0
Nghost:    1895 ave 1895 max 1895 min
Histogram: 1 0 0 0 0 0 0 0 0 0
Neighs:    42140 ave 42140 max 42140 min
Histogram: 1 0 0 0 0 0 0 0 0 0

Total # of neighbors = 42140
Ave neighs/atom = 42.14
Neighbor list builds = 2
Dangerous builds = 2
minimize 1e-2 1e-2 10000 10000
WARNING: Using 'neigh_modify every 1 delay 0 check yes' setting during minimization (../min.cpp:168)
Per MPI rank memory allocation (min/avg/max) = 5.819 | 5.819 | 5.819 Mbytes
Step Atoms Temp Press TotEng 
    1251     1000     574.3923    12347.179   -3592.9618 
    1252     1000     574.3923     10216.83   -3604.1124 
Loop time of 0.006964 on 1 procs for 1 steps with 1000 atoms

99.3% CPU use with 1 MPI tasks x no OpenMP threads

Minimization stats:
  Stopping criterion = energy tolerance
  Energy initial, next-to-last, final = 
        -3667.13362626     -3667.13362626     -3678.28416382
  Force two-norm initial, final = 19.8253 8.61352
  Force max component initial, final = 2.4072 0.939137
  Final line search alpha, max atom move = 0.041542 0.0390136
  Iterations, force evaluations = 1 1

MPI task timing breakdown:
Section |  min time  |  avg time  |  max time  |%varavg| %total
---------------------------------------------------------------
Pair    | 0.00403    | 0.00403    | 0.00403    |   0.0 | 57.87
Neigh   | 0.00212    | 0.00212    | 0.00212    |   0.0 | 30.44
Comm    | 5.6e-05    | 5.6e-05    | 5.6e-05    |   0.0 |  0.80
Output  | 0          | 0          | 0          |   0.0 |  0.00
Modify  | 0          | 0          | 0          |   0.0 |  0.00
Other   |            | 0.000758   |            |       | 10.88

Nlocal:    1000 ave 1000 max 1000 min
Histogram: 1 0 0 0 0 0 0 0 0 0
Nghost:    1895 ave 1895 max 1895 min
Histogram: 1 0 0 0 0 0 0 0 0 0
Neighs:    42104 ave 42104 max 42104 min
Histogram: 1 0 0 0 0 0 0 0 0 0

Total # of neighbors = 42104
Ave neighs/atom = 42.104
Neighbor list builds = 1
Dangerous builds = 1
run 200
Per MPI rank memory allocation (min/avg/max) = 4.694 | 4.694 | 4.694 Mbytes
Step Atoms Temp Press TotEng 
    1252     1000     574.3923     10216.83   -3604.1124 
    1260     1000    505.80491    12167.665   -3600.8756 
    1270     1000    381.13001    15513.751   -3597.5028 
    1280     1000    284.58354    18279.977   -3594.8875 
    1290     1000     248.1086    19699.395   -3592.7007 
    1300     1000    262.99327    19888.642   -3590.5127 
    1310     1000    304.31012    19215.471   -3588.0241 
    1320     1000     354.3455    18265.076   -3585.1238 
    1330     1000     404.7105    17372.333   -3581.8102 
    1340     1000    446.27018    16810.188   -3578.1475 
    1350     1000    468.34462    16729.689   -3574.2758 
    1360     1000    471.03913     17200.27   -3570.3613 
    1370     1000    470.04636    17787.402   -3566.4862 
    1380     1000    481.98079    17917.372   -3562.5879 
    1390     1000    510.49138    17895.383    -3558.543 
    1400     1000    545.45204    17871.705   -3554.2662 
    1410     1000    570.40256    17938.695   -3549.7854 
    1420     1000    584.37148    18189.603   -3545.1943 
    1430     1000    602.36924    18585.357   -3540.5174 
    1440     1000    633.79542    18773.869   -3535.7017 
    1450     1000    670.58403    18473.229   -3530.7079 
    1452     1000    677.33536    18466.507   -3529.6904 
Loop time of 0.411148 on 1 procs for 200 steps with 1000 atoms

Performance: 42.029 ns/day, 0.571 hours/ns, 486.443 timesteps/s
99.7% CPU use with 1 MPI tasks x no OpenMP threads

MPI task timing breakdown:
Section |  min time  |  avg time  |  max time  |%varavg| %total
---------------------------------------------------------------
Pair    | 0.34842    | 0.34842    | 0.34842    |   0.0 | 84.74
Neigh   | 0.042239   | 0.042239   | 0.042239   |   0.0 | 10.27
Comm    | 0.002329   | 0.002329   | 0.002329   |   0.0 |  0.57
Output  | 0.014316   | 0.014316   | 0.014316   |   0.0 |  3.48
Modify  | 0.003287   | 0.003287   | 0.003287   |   0.0 |  0.80
Other   |            | 0.000555   |            |       |  0.13

Nlocal:    1000 ave 1000 max 1000 min
Histogram: 1 0 0 0 0 0 0 0 0 0
Nghost:    1891 ave 1891 max 1891 min
Histogram: 1 0 0 0 0 0 0 0 0 0
Neighs:    42905 ave 42905 max 42905 min
Histogram: 1 0 0 0 0 0 0 0 0 0

Total # of neighbors = 42905
Ave neighs/atom = 42.905
Neighbor list builds = 20
Dangerous builds = 20
minimize 1e-4 1e-4 10000 10000
WARNING: Using 'neigh_modify every 1 delay 0 check yes' setting during minimization (../min.cpp:168)
Per MPI rank memory allocation (min/avg/max) = 5.819 | 5.819 | 5.819 Mbytes
Step Atoms Temp Press TotEng 
    1452     1000    677.33536    18466.507   -3529.6904 
    1460     1000    677.33536   -1802.1192    -3595.529 
    1466     1000    677.33536   -5192.1627   -3600.4007 
Loop time of 0.076486 on 1 procs for 14 steps with 1000 atoms

99.8% CPU use with 1 MPI tasks x no OpenMP threads

Minimization stats:
  Stopping criterion = energy tolerance
  Energy initial, next-to-last, final = 
        -3617.15527456     -3687.51095698     -3687.86560971
  Force two-norm initial, final = 25.9746 2.00498
  Force max component initial, final = 2.92178 0.398473
  Final line search alpha, max atom move = 0.345157 0.137536
  Iterations, force evaluations = 14 18

MPI task timing breakdown:
Section |  min time  |  avg time  |  max time  |%varavg| %total
---------------------------------------------------------------
Pair    | 0.037177   | 0.037177   | 0.037177   |   0.0 | 48.61
Neigh   | 0.036326   | 0.036326   | 0.036326   |   0.0 | 47.49
Comm    | 0.000842   | 0.000842   | 0.000842   |   0.0 |  1.10
[...]
    2196     1000    79165.129    415566.41    6607.1231 
Loop time of 0.682673 on 1 procs for 120 steps with 1000 atoms

98.5% CPU use with 1 MPI tasks x no OpenMP threads

Minimization stats:
  Stopping criterion = energy tolerance
  Energy initial, next-to-last, final = 
        -287.299732498     -3615.18380441     -3615.54002664
  Force two-norm initial, final = 688.62 2.01301
  Force max component initial, final = 115.618 0.264976
  Final line search alpha, max atom move = 0.173408 0.0459488
  Iterations, force evaluations = 120 146

MPI task timing breakdown:
Section |  min time  |  avg time  |  max time  |%varavg| %total
---------------------------------------------------------------
Pair    | 0.34254    | 0.34254    | 0.34254    |   0.0 | 50.18
Neigh   | 0.31412    | 0.31412    | 0.31412    |   0.0 | 46.01
Comm    | 0.00972    | 0.00972    | 0.00972    |   0.0 |  1.42
Output  | 0.009355   | 0.009355   | 0.009355   |   0.0 |  1.37
Modify  | 0          | 0          | 0          |   0.0 |  0.00
Other   |            | 0.006936   |            |       |  1.02

Nlocal:    1000 ave 1000 max 1000 min
Histogram: 1 0 0 0 0 0 0 0 0 0
Nghost:    2805 ave 2805 max 2805 min
Histogram: 1 0 0 0 0 0 0 0 0 0
Neighs:    42491 ave 42491 max 42491 min
Histogram: 1 0 0 0 0 0 0 0 0 0

Total # of neighbors = 42491
Ave neighs/atom = 42.491
Neighbor list builds = 136
Dangerous builds = 127
displace_atoms liquidAtoms move -3.63 0 0
run 10
Per MPI rank memory allocation (min/avg/max) = 4.701 | 4.701 | 4.701 Mbytes
Step Atoms Temp Press TotEng 
    2196     1000    79165.129       953449     13561.01 
    2200     1000    78691.188    884583.81    11273.661 
    2206     1000    66096.815    740346.63    8017.7955 
Loop time of 0.025802 on 1 procs for 10 steps with 1000 atoms

Performance: 33.486 ns/day, 0.717 hours/ns, 387.567 timesteps/s
93.9% CPU use with 1 MPI tasks x no OpenMP threads

MPI task timing breakdown:
Section |  min time  |  avg time  |  max time  |%varavg| %total
---------------------------------------------------------------
Pair    | 0.022353   | 0.022353   | 0.022353   |   0.0 | 86.63
Neigh   | 0.002293   | 0.002293   | 0.002293   |   0.0 |  8.89
Comm    | 0.000174   | 0.000174   | 0.000174   |   0.0 |  0.67
Output  | 0.000756   | 0.000756   | 0.000756   |   0.0 |  2.93
Modify  | 0.000182   | 0.000182   | 0.000182   |   0.0 |  0.71
Other   |            | 4.4e-05    |            |       |  0.17

Nlocal:    1000 ave 1000 max 1000 min
Histogram: 1 0 0 0 0 0 0 0 0 0
Nghost:    2754 ave 2754 max 2754 min
Histogram: 1 0 0 0 0 0 0 0 0 0
Neighs:    43797 ave 43797 max 43797 min
Histogram: 1 0 0 0 0 0 0 0 0 0

Total # of neighbors = 43797
Ave neighs/atom = 43.797
Neighbor list builds = 1
Dangerous builds = 1
minimize 1e-4 1e-4 10000 10000
WARNING: Using 'neigh_modify every 1 delay 0 check yes' setting during minimization (../min.cpp:168)
Per MPI rank memory allocation (min/avg/max) = 5.826 | 5.826 | 5.826 Mbytes
Step Atoms Temp Press TotEng 
    2206     1000    66096.815    740346.63    8017.7955 
    2210     1000    66096.815    602333.74    6498.5276 
    2220     1000    66096.815    441617.31    5426.7259 
    2230     1000    66096.815    394559.22    5181.1433 
    2240     1000    66096.815    378075.49    5087.7904 
    2250     1000    66096.815    370281.34    5040.5824 
    2260     1000    66096.815    363716.93    5003.3716 
    2270     1000    66096.815    358337.01    4978.0237 
    2280     1000    66096.815    354011.78    4958.7234 
    2290     1000    66096.815     350943.1    4945.7922 
    2300     1000    66096.815    347322.28    4934.2425 
    2310     1000    66096.815     345010.8    4926.8545 
    2320     1000    66096.815    344114.73    4920.5392 
    2327     1000    66096.815    343624.52    4917.3031 
Loop time of 0.626873 on 1 procs for 121 steps with 1000 atoms

99.1% CPU use with 1 MPI tasks x no OpenMP threads

Minimization stats:
  Stopping criterion = energy tolerance
  Energy initial, next-to-last, final = 
        -517.344677022     -3617.49698029     -3617.83711879
  Force two-norm initial, final = 606.069 1.98893
  Force max component initial, final = 67.479 0.429202
  Final line search alpha, max atom move = 0.253977 0.109007
  Iterations, force evaluations = 121 138

MPI task timing breakdown:
Section |  min time  |  avg time  |  max time  |%varavg| %total
---------------------------------------------------------------
Pair    | 0.31485    | 0.31485    | 0.31485    |   0.0 | 50.23
Neigh   | 0.28694    | 0.28694    | 0.28694    |   0.0 | 45.77
Comm    | 0.009402   | 0.009402   | 0.009402   |   0.0 |  1.50
Output  | 0.008919   | 0.008919   | 0.008919   |   0.0 |  1.42
Modify  | 0          | 0          | 0          |   0.0 |  0.00
Other   |            | 0.006759   |            |       |  1.08

Nlocal:    1000 ave 1000 max 1000 min
Histogram: 1 0 0 0 0 0 0 0 0 0
Nghost:    2910 ave 2910 max 2910 min
Histogram: 1 0 0 0 0 0 0 0 0 0
Neighs:    42092 ave 42092 max 42092 min
Histogram: 1 0 0 0 0 0 0 0 0 0

Total # of neighbors = 42092
Ave neighs/atom = 42.092
Neighbor list builds = 127
Dangerous builds = 116
displace_atoms liquidAtoms move -3.63 0 0
run 10
Per MPI rank memory allocation (min/avg/max) = 4.702 | 4.702 | 4.702 Mbytes
Step Atoms Temp Press TotEng 
    2327     1000    66096.815    870195.68    12317.997 
    2330     1000    70783.874    836679.13    10832.157 
    2337     1000      62140.7    680380.52     7281.339 
Loop time of 0.023012 on 1 procs for 10 steps with 1000 atoms

Performance: 37.546 ns/day, 0.639 hours/ns, 434.556 timesteps/s
98.5% CPU use with 1 MPI tasks x no OpenMP threads

MPI task timing breakdown:
Section |  min time  |  avg time  |  max time  |%varavg| %total
---------------------------------------------------------------
Pair    | 0.019625   | 0.019625   | 0.019625   |   0.0 | 85.28
Neigh   | 0.002251   | 0.002251   | 0.002251   |   0.0 |  9.78
Comm    | 0.00018    | 0.00018    | 0.00018    |   0.0 |  0.78
Output  | 0.000746   | 0.000746   | 0.000746   |   0.0 |  3.24
Modify  | 0.000176   | 0.000176   | 0.000176   |   0.0 |  0.76
Other   |            | 3.4e-05    |            |       |  0.15

Nlocal:    1000 ave 1000 max 1000 min
Histogram: 1 0 0 0 0 0 0 0 0 0
Nghost:    2847 ave 2847 max 2847 min
Histogram: 1 0 0 0 0 0 0 0 0 0
Neighs:    42360 ave 42360 max 42360 min
Histogram: 1 0 0 0 0 0 0 0 0 0

Total # of neighbors = 42360
Ave neighs/atom = 42.36
Neighbor list builds = 1
Dangerous builds = 1
minimize 1e-4 1e-4 10000 10000
WARNING: Using 'neigh_modify every 1 delay 0 check yes' setting during minimization (../min.cpp:168)
Per MPI rank memory allocation (min/avg/max) = 5.827 | 5.827 | 5.827 Mbytes
Step Atoms Temp Press TotEng 
    2337     1000      62140.7    680380.52     7281.339 
    2340     1000      62140.7    586049.09    6164.7561 
    2350     1000      62140.7    407428.87     4929.664 
    2360     1000      62140.7    358725.76    4667.8227 
    2370     1000      62140.7    341462.44    4567.3742 
    2380     1000      62140.7    333896.28    4513.7372 
    2390     1000      62140.7    329861.85    4485.1175 
    2400     1000      62140.7    326704.36    4462.4094 
    2410     1000      62140.7    323699.42    4441.4487 
    2420     1000      62140.7    321940.37    4430.7316 
    2430     1000      62140.7    320651.72    4421.3651 
    2440     1000      62140.7    321032.91    4414.9141 
    2444     1000      62140.7    321369.17    4413.3947 
Loop time of 0.532462 on 1 procs for 107 steps with 1000 atoms

99.8% CPU use with 1 MPI tasks x no OpenMP threads

Minimization stats:
  Stopping criterion = energy tolerance
  Energy initial, next-to-last, final = 
        -742.944585747     -3610.55524304     -3610.88884786
  Force two-norm initial, final = 594.168 2.34928
  Force max component initial, final = 85.781 0.329388
  Final line search alpha, max atom move = 0.214367 0.0706098
  Iterations, force evaluations = 107 119

MPI task timing breakdown:
Section |  min time  |  avg time  |  max time  |%varavg| %total
---------------------------------------------------------------
Pair    | 0.26258    | 0.26258    | 0.26258    |   0.0 | 49.31
Neigh   | 0.24789    | 0.24789    | 0.24789    |   0.0 | 46.55
Comm    | 0.008322   | 0.008322   | 0.008322   |   0.0 |  1.56
Output  | 0.007885   | 0.007885   | 0.007885   |   0.0 |  1.48
Modify  | 0          | 0          | 0          |   0.0 |  0.00
Other   |            | 0.00579    |            |       |  1.09

Nlocal:    1000 ave 1000 max 1000 min
Histogram: 1 0 0 0 0 0 0 0 0 0
Nghost:    2971 ave 2971 max 2971 min
Histogram: 1 0 0 0 0 0 0 0 0 0
Neighs:    41809 ave 41809 max 41809 min
Histogram: 1 0 0 0 0 0 0 0 0 0

Total # of neighbors = 41809
Ave neighs/atom = 41.809
Neighbor list builds = 113
Dangerous builds = 108
displace_atoms liquidAtoms move -3.63 0 0
run 10
Per MPI rank memory allocation (min/avg/max) = 4.702 | 4.702 | 4.702 Mbytes
Step Atoms Temp Press TotEng 
    2444     1000      62140.7    803473.32    11740.569 
    2450     1000    70756.559    729839.88    8761.5939 
    2454     1000    59331.366    637791.56    6847.3418 
Loop time of 0.022009 on 1 procs for 10 steps with 1000 atoms

Performance: 39.257 ns/day, 0.611 hours/ns, 454.360 timesteps/s
99.8% CPU use with 1 MPI tasks x no OpenMP threads

MPI task timing breakdown:
Section |  min time  |  avg time  |  max time  |%varavg| %total
---------------------------------------------------------------
Pair    | 0.018704   | 0.018704   | 0.018704   |   0.0 | 84.98
Neigh   | 0.002207   | 0.002207   | 0.002207   |   0.0 | 10.03
Comm    | 0.000176   | 0.000176   | 0.000176   |   0.0 |  0.80
Output  | 0.000727   | 0.000727   | 0.000727   |   0.0 |  3.30
Modify  | 0.000164   | 0.000164   | 0.000164   |   0.0 |  0.75
Other   |            | 3.1e-05    |            |       |  0.14

Nlocal:    1000 ave 1000 max 1000 min
Histogram: 1 0 0 0 0 0 0 0 0 0
Nghost:    2950 ave 2950 max 2950 min
Histogram: 1 0 0 0 0 0 0 0 0 0
Neighs:    41117 ave 41117 max 41117 min
Histogram: 1 0 0 0 0 0 0 0 0 0

Total # of neighbors = 41117
Ave neighs/atom = 41.117
Neighbor list builds = 1
Dangerous builds = 1
minimize 1e-4 1e-4 10000 10000
WARNING: Using 'neigh_modify every 1 delay 0 check yes' setting during minimization (../min.cpp:168)
Per MPI rank memory allocation (min/avg/max) = 5.827 | 5.827 | 5.827 Mbytes
Step Atoms Temp Press TotEng 
    2454     1000    59331.366    637791.56    6847.3418 
    2460     1000    59331.366    465430.71    5079.4554 
    2470     1000    59331.366     361827.1    4459.6402 
    2480     1000    59331.366    329687.36    4291.5139 
    2490     1000    59331.366    317789.82     4223.435 
    2500     1000    59331.366    310790.54    4173.7859 
    2510     1000    59331.366    306152.49    4135.5311 
    2520     1000    59331.366    303637.52    4109.9425 
    2530     1000    59331.366     302217.7    4093.3342 
    2540     1000    59331.366    301467.83    4081.5962 
    2550     1000    59331.366    301755.36    4070.8001 
    2552     1000    59331.366    301679.08    4069.9825 
Loop time of 0.468198 on 1 procs for 98 steps with 1000 atoms

99.8% CPU use with 1 MPI tasks x no OpenMP threads

Minimization stats:
  Stopping criterion = energy tolerance
  Energy initial, next-to-last, final = 
        -814.169915618      -3591.1773984     -3591.52928135
  Force two-norm initial, final = 630.893 2.44501
  Force max component initial, final = 90.5577 0.303624
  Final line search alpha, max atom move = 0.228668 0.0694292
  Iterations, force evaluations = 98 106

MPI task timing breakdown:
Section |  min time  |  avg time  |  max time  |%varavg| %total
---------------------------------------------------------------
Pair    | 0.2301     | 0.2301     | 0.2301     |   0.0 | 49.15
Neigh   | 0.21802    | 0.21802    | 0.21802    |   0.0 | 46.56
Comm    | 0.007547   | 0.007547   | 0.007547   |   0.0 |  1.61
Output  | 0.007252   | 0.007252   | 0.007252   |   0.0 |  1.55
Modify  | 0          | 0          | 0          |   0.0 |  0.00
Other   |            | 0.005283   |            |       |  1.13

Nlocal:    1000 ave 1000 max 1000 min
Histogram: 1 0 0 0 0 0 0 0 0 0
Nghost:    3012 ave 3012 max 3012 min
Histogram: 1 0 0 0 0 0 0 0 0 0
Neighs:    41032 ave 41032 max 41032 min
Histogram: 1 0 0 0 0 0 0 0 0 0

Total # of neighbors = 41032
Ave neighs/atom = 41.032
Neighbor list builds = 100
Dangerous builds = 95
displace_atoms liquidAtoms move -3.63 0 0
run 10
Per MPI rank memory allocation (min/avg/max) = 4.703 | 4.703 | 4.703 Mbytes
Step Atoms Temp Press TotEng 
    2552     1000    59331.366    735018.54    10226.612 
    2560     1000    60179.501    606718.45    6628.9136 
    2562     1000    54902.858    568287.51     5815.391 
Loop time of 0.021403 on 1 procs for 10 steps with 1000 atoms

Performance: 40.368 ns/day, 0.595 hours/ns, 467.224 timesteps/s
99.8% CPU use with 1 MPI tasks x no OpenMP threads

MPI task timing breakdown:
Section |  min time  |  avg time  |  max time  |%varavg| %total
---------------------------------------------------------------
Pair    | 0.018128   | 0.018128   | 0.018128   |   0.0 | 84.70
Neigh   | 0.002169   | 0.002169   | 0.002169   |   0.0 | 10.13
Comm    | 0.000181   | 0.000181   | 0.000181   |   0.0 |  0.85
Output  | 0.000726   | 0.000726   | 0.000726   |   0.0 |  3.39
Modify  | 0.000165   | 0.000165   | 0.000165   |   0.0 |  0.77
Other   |            | 3.4e-05    |            |       |  0.16

Nlocal:    1000 ave 1000 max 1000 min
Histogram: 1 0 0 0 0 0 0 0 0 0
Nghost:    3021 ave 3021 max 3021 min
Histogram: 1 0 0 0 0 0 0 0 0 0
Neighs:    39778 ave 39778 max 39778 min
Histogram: 1 0 0 0 0 0 0 0 0 0

Total # of neighbors = 39778
Ave neighs/atom = 39.778
Neighbor list builds = 1
Dangerous builds = 1
minimize 1e-4 1e-4 10000 10000
WARNING: Using 'neigh_modify every 1 delay 0 check yes' setting during minimization (../min.cpp:168)
Per MPI rank memory allocation (min/avg/max) = 5.828 | 5.828 | 5.828 Mbytes
Step Atoms Temp Press TotEng 
    2562     1000    54902.858    568287.51     5815.391 
    2570     1000    54902.858    388660.22    4248.0344 
    2580     1000    54902.858    314995.31    3841.2731 
    2590     1000    54902.858    291157.38    3713.9712 
    2600     1000    54902.858    280225.96    3650.2533 
    2610     1000    54902.858    274494.47    3606.5932 
    2620     1000    54902.858    271633.08    3572.8815 
    2630     1000    54902.858    269787.76    3546.8462 
    2640     1000    54902.858    269195.71    3527.4269 
    2650     1000    54902.858    270378.65    3514.0517 
    2660     1000    54902.858    272231.63    3504.8978 
    2670     1000    54902.858    274960.18    3495.0901 
    2680     1000    54902.858     277395.7    3488.7344 
    2690     1000    54902.858    279451.23    3482.8137 
    2700     1000    54902.858    281300.46    3478.4511 
Loop time of 0.708652 on 1 procs for 138 steps with 1000 atoms

99.8% CPU use with 1 MPI tasks x no OpenMP threads

Minimization stats:
  Stopping criterion = energy tolerance
  Energy initial, next-to-last, final = 
        -1274.26372998     -3610.85314204      -3611.2036347
  Force two-norm initial, final = 504.233 2.14837
  Force max component initial, final = 71.0822 0.441011
  Final line search alpha, max atom move = 0.187823 0.082832
  Iterations, force evaluations = 138 167

MPI task timing breakdown:
Section |  min time  |  avg time  |  max time  |%varavg| %total
---------------------------------------------------------------
Pair    | 0.357      | 0.357      | 0.357      |   0.0 | 50.38
Neigh   | 0.32314    | 0.32314    | 0.32314    |   0.0 | 45.60
Comm    | 0.01164    | 0.01164    | 0.01164    |   0.0 |  1.64
Output  | 0.009364   | 0.009364   | 0.009364   |   0.0 |  1.32
Modify  | 0          | 0          | 0          |   0.0 |  0.00
Other   |            | 0.007501   |            |       |  1.06

Nlocal:    1000 ave 1000 max 1000 min
Histogram: 1 0 0 0 0 0 0 0 0 0
Nghost:    3010 ave 3010 max 3010 min
Histogram: 1 0 0 0 0 0 0 0 0 0
Neighs:    41504 ave 41504 max 41504 min
Histogram: 1 0 0 0 0 0 0 0 0 0

Total # of neighbors = 41504
Ave neighs/atom = 41.504
Neighbor list builds = 151
Dangerous builds = 136
displace_atoms liquidAtoms move -3.63 0 0
run 10
Per MPI rank memory allocation (min/avg/max) = 4.703 | 4.703 | 4.703 Mbytes
Step Atoms Temp Press TotEng 
    2700     1000    54902.858    663426.84    8966.1402 
    2710     1000    49056.043    522380.13    5041.9837 
Loop time of 0.021016 on 1 procs for 10 steps with 1000 atoms

Performance: 41.112 ns/day, 0.584 hours/ns, 475.828 timesteps/s
99.8% CPU use with 1 MPI tasks x no OpenMP threads

MPI task timing breakdown:
Section |  min time  |  avg time  |  max time  |%varavg| %total
---------------------------------------------------------------
Pair    | 0.017755   | 0.017755   | 0.017755   |   0.0 | 84.48
Neigh   | 0.002163   | 0.002163   | 0.002163   |   0.0 | 10.29
Comm    | 0.000185   | 0.000185   | 0.000185   |   0.0 |  0.88
Output  | 0.000719   | 0.000719   | 0.000719   |   0.0 |  3.42
Modify  | 0.000162   | 0.000162   | 0.000162   |   0.0 |  0.77
Other   |            | 3.2e-05    |            |       |  0.15

Nlocal:    1000 ave 1000 max 1000 min
Histogram: 1 0 0 0 0 0 0 0 0 0
Nghost:    3040 ave 3040 max 3040 min
Histogram: 1 0 0 0 0 0 0 0 0 0
Neighs:    39494 ave 39494 max 39494 min
Histogram: 1 0 0 0 0 0 0 0 0 0

Total # of neighbors = 39494
Ave neighs/atom = 39.494
Neighbor list builds = 1
Dangerous builds = 1
minimize 1e-4 1e-4 10000 10000
WARNING: Using 'neigh_modify every 1 delay 0 check yes' setting during minimization (../min.cpp:168)
Per MPI rank memory allocation (min/avg/max) = 5.828 | 5.828 | 5.828 Mbytes
Step Atoms Temp Press TotEng 
    2710     1000    49056.043    522380.13    5041.9837 
    2720     1000    49056.043    326208.36    3320.8684 
    2730     1000    49056.043    267865.63     3017.022 
    2740     1000    49056.043    249590.74    2924.1338 
    2750     1000    49056.043    239229.92    2860.0051 
    2760     1000    49056.043    235689.93    2819.8215 
    2770     1000    49056.043    234387.88    2791.3934 
    2780     1000    49056.043    235351.29    2771.3302 
    2790     1000    49056.043    237023.74    2758.1567 
    2800     1000    49056.043    238694.04    2749.8803 
    2810     1000    49056.043    240862.02    2742.0589 
    2820     1000    49056.043    245126.27    2734.1903 
    2830     1000    49056.043     248312.6    2727.9811 
    2840     1000    49056.043    249155.01     2723.502 
    2844     1000    49056.043    249120.03    2721.9136 
Loop time of 0.695958 on 1 procs for 134 steps with 1000 atoms

99.2% CPU use with 1 MPI tasks x no OpenMP threads

Minimization stats:
  Stopping criterion = energy tolerance
  Energy initial, next-to-last, final = 
        -1292.66646634     -3612.39304291     -3612.73660858
  Force two-norm initial, final = 540.791 2.10274
  Force max component initial, final = 102.5 0.172579
  Final line search alpha, max atom move = 0.117965 0.0203583
  Iterations, force evaluations = 134 164

MPI task timing breakdown:
Section |  min time  |  avg time  |  max time  |%varavg| %total
---------------------------------------------------------------
Pair    | 0.35254    | 0.35254    | 0.35254    |   0.0 | 50.66
Neigh   | 0.31234    | 0.31234    | 0.31234    |   0.0 | 44.88
Comm    | 0.01143    | 0.01143    | 0.01143    |   0.0 |  1.64
Output  | 0.012314   | 0.012314   | 0.012314   |   0.0 |  1.77
Modify  | 0          | 0          | 0          |   0.0 |  0.00
Other   |            | 0.007329   |            |       |  1.05

Nlocal:    1000 ave 1000 max 1000 min
Histogram: 1 0 0 0 0 0 0 0 0 0
Nghost:    3000 ave 3000 max 3000 min
Histogram: 1 0 0 0 0 0 0 0 0 0
Neighs:    41255 ave 41255 max 41255 min
Histogram: 1 0 0 0 0 0 0 0 0 0

Total # of neighbors = 41255
Ave neighs/atom = 41.255
Neighbor list builds = 146
Dangerous builds = 128
Total wall time: 0:00:11
