read_data data.conc2 add append
  triclinic box = (0 0 0) to (29.04 14.52 14.52) with tilt (0 0 0)
  1 by 1 by 1 MPI processor grid
  reading atoms ...
  256 atoms
  read_data CPU = 0.000208349 secs
read_data data.conc2 add append shift 14.52 0 0 group conc2Atoms
  triclinic box = (0 0 0) to (29.04 14.52 14.52) with tilt (0 0 0)
  1 by 1 by 1 MPI processor grid
  reading atoms ...
  256 atoms
  read_data CPU = 0.000173639 secs
reset_timestep 0
timestep 0.001
thermo 100
thermo_style custom step atoms temp vol press pe etotal
dump 2 all custom 10 conc2.XYZ id type x y z
info groups
fix 0 all nve
fix 1 all langevin 400 400 0.1 761 zero yes
run 10000
Per MPI rank memory allocation (min/avg/max) = 5.95 | 5.95 | 5.95 Mbytes
Step Atoms Temp Volume Press PotEng TotEng 
       0      512            0    6122.5148   -120878.18   -2211.5974   -2211.5974 
     100      512    235.45093    6122.5148   -100119.77   -2195.2277   -2179.6757 
     200      512    360.74783    6122.5148   -92560.974   -2188.9636   -2165.1356 
     300      512    380.13938    6122.5148   -88983.191    -2185.664   -2160.5551 
     400      512    410.36376    6122.5148   -89058.635   -2186.1709   -2159.0656 
     500      512    372.33199    6122.5148   -89313.477   -2185.9795   -2161.3863 
     600      512    401.59112    6122.5148   -91022.534   -2187.8777   -2161.3519 
     700      512     392.0702    6122.5148   -89892.404   -2187.0282   -2161.1312 
     800      512    387.23168    6122.5148   -90085.775   -2186.9428   -2161.3654 
     900      512    408.18398    6122.5148   -90011.074   -2187.1157   -2160.1544 
    1000      512    403.39967    6122.5148    -89260.39    -2185.983   -2159.3377 
    1100      512    424.99474    6122.5148   -88777.464   -2185.9268   -2157.8551 
    1200      512    402.56747    6122.5148   -90072.112   -2186.9677   -2160.3774 
    1300      512    380.94329    6122.5148   -89121.009   -2185.6773   -2160.5152 
    1400      512    385.25842    6122.5148   -88180.283   -2185.3697   -2159.9226 
    1500      512    406.47246    6122.5148   -89498.739   -2186.1274   -2159.2792 
    1600      512    421.09383    6122.5148   -87744.662   -2185.0619   -2157.2479 
    1700      512      406.523    6122.5148    -88614.65   -2185.7651   -2158.9135 
    1800      512    385.50982    6122.5148   -89130.867   -2185.8293   -2160.3656 
    1900      512    381.31375    6122.5148   -89211.768   -2185.9327   -2160.7462 
    2000      512    397.89203    6122.5148    -89525.29   -2186.4833   -2160.2017 
    2100      512    414.89127    6122.5148   -89370.164    -2186.673   -2159.2686 
    2200      512    394.88721    6122.5148   -89733.067    -2186.626    -2160.543 
    2300      512     419.0121    6122.5148   -87031.367   -2184.2741   -2156.5976 
    2400      512    410.60066    6122.5148   -89211.046   -2186.1158   -2158.9948 
    2500      512    412.87381    6122.5148   -88290.805   -2185.2325   -2157.9614 
    2600      512    396.70835    6122.5148   -87666.427   -2184.3767   -2158.1733 
    2700      512    420.85971    6122.5148   -88364.728   -2185.6257   -2157.8271 
    2800      512    438.61344    6122.5148   -86849.718   -2184.1766   -2155.2053 
    2900      512    406.68474    6122.5148   -89248.073   -2186.4054   -2159.5431 
    3000      512    429.47202    6122.5148   -89138.499    -2186.506   -2158.1385 
    3100      512    404.90871    6122.5148   -86316.712   -2183.2912   -2156.5462 
    3200      512    408.02031    6122.5148   -86930.002   -2184.0778   -2157.1273 
    3300      512    413.02741    6122.5148   -88153.751   -2185.4332    -2158.152 
    3400      512    399.18282    6122.5148    -88769.51   -2185.8309   -2159.4641 
    3500      512    400.64388    6122.5148   -88989.545   -2186.3492   -2159.8859 
    3600      512    402.57619    6122.5148   -89618.323   -2186.8714   -2160.2805 
    3700      512    404.20469    6122.5148   -91215.976   -2188.3309   -2161.6324 
    3800      512     403.3321    6122.5148   -89482.483   -2186.3537   -2159.7129 
    3900      512    401.52672    6122.5148    -88938.79   -2186.1365   -2159.6149 
    4000      512    368.46443    6122.5148   -88141.918    -2185.052   -2160.7142 
    4100      512    359.09813    6122.5148   -89307.829   -2185.4635   -2161.7444 
    4200      512    389.85291    6122.5148   -89377.214   -2186.1257   -2160.3751 
    4300      512    411.19833    6122.5148    -88570.51   -2185.4675    -2158.307 
    4400      512    411.28194    6122.5148   -88993.215   -2186.1573   -2158.9913 
    4500      512    433.19463    6122.5148   -88111.282   -2185.6183    -2157.005 
    4600      512    393.52197    6122.5148   -88720.507     -2185.29   -2159.2971 
    4700      512    374.75861    6122.5148   -89274.228    -2186.043   -2161.2895 
    4800      512    383.22413    6122.5148   -90719.682   -2186.8738   -2161.5611 
    4900      512    402.13903    6122.5148   -91209.272   -2187.9281   -2161.3661 
    5000      512    381.13932    6122.5148   -89094.315   -2185.9385   -2160.7635 
    5100      512    382.02756    6122.5148   -88398.647   -2185.3592   -2160.1255 
    5200      512    379.91691    6122.5148   -87262.498   -2183.9275   -2158.8332 
    5300      512    411.94424    6122.5148   -87623.774   -2184.6337   -2157.4239 
    5400      512    408.80594    6122.5148   -90203.272    -2187.312   -2160.3096 
    5500      512    380.09678    6122.5148   -89435.605     -2186.46   -2161.3539 
    5600      512    416.86069    6122.5148   -90618.411   -2187.6685   -2160.1341 
    5700      512    392.80653    6122.5148   -87260.808   -2184.2558   -2158.3102 
    5800      512    381.45054    6122.5148   -89494.261   -2186.2563   -2161.0607 
    5900      512    393.61218    6122.5148   -88844.837   -2185.7217   -2159.7229 
    6000      512    388.55621    6122.5148   -90043.365   -2186.7579    -2161.093 
    6100      512    380.12003    6122.5148   -88090.565   -2185.1325   -2160.0248 
    6200      512    415.58903    6122.5148   -88110.636   -2185.5122   -2158.0617 
    6300      512    380.35424    6122.5148   -89017.936    -2185.986   -2160.8628 
    6400      512    401.08437    6122.5148   -88913.642   -2186.0152   -2159.5228 
    6500      512    425.48249    6122.5148   -88366.014   -2185.5285   -2157.4246 
    6600      512    405.69672    6122.5148   -89160.262   -2186.3668   -2159.5697 
    6700      512    427.37228    6122.5148   -88494.283   -2185.5815   -2157.3527 
    6800      512     400.5804    6122.5148   -88363.639   -2185.3678   -2158.9086 
    6900      512    385.93251    6122.5148    -87314.25   -2184.2489   -2158.7573 
    7000      512    411.04002    6122.5148   -88827.053   -2185.8292   -2158.6792 
    7100      512    387.33395    6122.5148   -89866.794   -2186.6006   -2161.0164 
    7200      512     385.9425    6122.5148   -88637.021   -2185.2958   -2159.8036 
    7300      512    390.01356    6122.5148   -90219.337   -2187.0875   -2161.3264 
    7400      512    393.55513    6122.5148   -89129.993   -2185.7957   -2159.8006 
    7500      512    413.58589    6122.5148    -87851.71    -2185.005   -2157.6868 
    7600      512    391.43836    6122.5148   -88126.871   -2184.9193    -2159.064 
    7700      512     426.5788    6122.5148   -87977.412   -2185.3239   -2157.1476 
    7800      512    415.75037    6122.5148    -88485.49   -2185.6183   -2158.1572 
    7900      512    408.12883    6122.5148   -88038.066   -2185.1364   -2158.1787 
    8000      512    384.39661    6122.5148   -88360.699   -2185.4465   -2160.0563 
    8100      512    402.14231    6122.5148   -88667.123   -2185.6016   -2159.0393 
    8200      512     374.0701    6122.5148   -88841.678    -2185.204   -2160.4959 
    8300      512    384.13617    6122.5148   -91080.858    -2188.036    -2162.663 
    8400      512    407.30406    6122.5148   -89057.549   -2186.0793   -2159.1761 
    8500      512    391.35174    6122.5148    -88890.18   -2185.8015    -2159.952 
    8600      512    391.34296    6122.5148   -89356.168   -2186.1728   -2160.3238 
    8700      512    387.09267    6122.5148   -90165.319   -2186.9687   -2161.4005 
    8800      512    384.61044    6122.5148   -89251.636    -2185.679   -2160.2747 
    8900      512    382.83843    6122.5148   -89787.072   -2185.9332    -2160.646 
    9000      512    400.71326    6122.5148   -90239.483   -2187.1734   -2160.7055 
    9100      512    413.73347    6122.5148   -89218.142   -2186.4308   -2159.1029 
    9200      512    420.79288    6122.5148   -89576.164   -2186.7057   -2158.9115 
    9300      512    393.37358    6122.5148   -90372.928   -2187.4065   -2161.4234 
    9400      512    414.79164    6122.5148   -89019.947   -2186.0864   -2158.6886 
    9500      512     402.6948    6122.5148   -89375.817   -2186.5024   -2159.9036 
    9600      512     390.9199    6122.5148   -87909.831   -2184.7896   -2158.9686 
    9700      512    399.52929    6122.5148   -88648.511   -2185.7993   -2159.4097 
    9800      512    381.83479    6122.5148   -88184.711   -2185.1533   -2159.9324 
    9900      512    402.57237    6122.5148   -90447.644   -2187.3619   -2160.7712 
   10000      512    412.34671    6122.5148   -88999.343    -2186.062   -2158.8257 
Loop time of 10.8948 on 1 procs for 10000 steps with 512 atoms

Performance: 79.304 ns/day, 0.303 hours/ns, 917.869 timesteps/s
99.6% CPU use with 1 MPI tasks x no OpenMP threads

MPI task timing breakdown:
Section |  min time  |  avg time  |  max time  |%varavg| %total
---------------------------------------------------------------
Pair    | 8.6434     | 8.6434     | 8.6434     |   0.0 | 79.33
Neigh   | 0.98464    | 0.98464    | 0.98464    |   0.0 |  9.04
Comm    | 0.095821   | 0.095821   | 0.095821   |   0.0 |  0.88
Output  | 0.91642    | 0.91642    | 0.91642    |   0.0 |  8.41
Modify  | 0.22567    | 0.22567    | 0.22567    |   0.0 |  2.07
Other   |            | 0.0289     |            |       |  0.27

Nlocal:    512 ave 512 max 512 min
Histogram: 1 0 0 0 0 0 0 0 0 0
Nghost:    2075 ave 2075 max 2075 min
Histogram: 1 0 0 0 0 0 0 0 0 0
Neighs:    21813 ave 21813 max 21813 min
Histogram: 1 0 0 0 0 0 0 0 0 0

Total # of neighbors = 21813
Ave neighs/atom = 42.6035
Neighbor list builds = 999
Dangerous builds = 998
info system
delete_atoms group all
Deleted 512 atoms, new total = 0
info system
log log.mixedConc
