
units metal
dimension 3
boundary p p p
atom_style atomic
#atom_modify map array

#----------------- CREATE ATOMS ------------------------
#region simR block 0 8.092 0 4.046 0 4.046 #use change_box to reshape sim box
#region solidBase block 0 4.046 0 4.046 0 4.046 #create_box reshapes sim box to fit new atoms
#create_box 2 solidBase
read_data data.conc1 group conc1Atoms
  triclinic box = (0 0 0) to (21.78 21.78 21.78) with tilt (0 0 0)
  1 by 1 by 1 MPI processor grid
  reading atoms ...
  864 atoms
  read_data CPU = 0.00072187 secs
#read_data data.conc3 add append group conc3Atoms
#read_data atom.data add append
#group baseAtoms region solidBase


# --------- DEFINE INTERATOMIC POTENTIAL ---------

pair_style eam/alloy
pair_coeff * * CuNi.eam.alloy Ni Cu
Reading potential file CuNi.eam.alloy with DATE: 2014-07-11
neighbor .05 bin
neigh_modify delay 10 check yes

# -------------- DEFFINE SETTINGS ----------------

#COMPUTES (do in Pylammps)

#---------------------- RUN ------------------------

#MINIMIZATION/RUN (do in pylammps)

info system
read_data data.conc9 add append shift 21.78 0 0 group conc9Atoms
  triclinic box = (0 0 0) to (43.56 21.78 21.78) with tilt (0 0 0)
  1 by 1 by 1 MPI processor grid
  reading atoms ...
  864 atoms
  read_data CPU = 0.000674017 secs
reset_timestep 0
timestep 0.001
thermo 100
thermo_style custom step atoms temp press etotal
dump 2 all custom 10 pos.XYZ id type x y z
info groups
fix 0 all nve
fix 1 all langevin 2000 2000 0.1 761 zero yes
run 10000
Neighbor list info ...
  update every 1 steps, delay 10 steps, check yes
  max neighbors/atom: 2000, page size: 100000
  master list distance cutoff = 6.44433
  ghost atom cutoff = 6.44433
  binsize = 3.22217, bins = 14 7 7
  1 neighbor lists, perpetual/occasional/extra = 1 0 0
  (1) pair eam/alloy, perpetual
      attributes: half, newton on
      pair build: half/bin/newton/tri
      stencil: half/bin/3d/newton/tri
      bin: standard
Per MPI rank memory allocation (min/avg/max) = 4.823 | 4.823 | 4.823 Mbytes
Step Atoms Temp Press TotEng 
       0     1728            0   -67971.683    -6839.253 
     100     1728    1254.2432    19235.952   -6297.2281 
     200     1728    1662.8905    52176.993   -6099.3563 
     300     1728    1898.0646    66828.897   -6004.3469 
     400     1728    1958.9571    73543.887   -5966.3233 
     500     1728    1943.4607    76525.011   -5960.4668 
     600     1728    1976.1008    79044.959   -5944.5029 
     700     1728      1997.02    80376.949   -5935.1362 
     800     1728     2113.548    84702.206    -5900.321 
     900     1728     2037.813    84927.337   -5910.9793 
    1000     1728    2035.5327    74889.118   -5950.2683 
    1100     1728    2014.8701    76675.456   -5946.2331 
    1200     1728    2017.4861    82041.474   -5923.8906 
    1300     1728    2084.7439    80817.044   -5916.5941 
    1400     1728    2073.2841    82230.921   -5914.8671 
    1500     1728    2057.4251    81779.631   -5921.0656 
    1600     1728    1992.3724    79694.063   -5940.1971 
    1700     1728     2062.549    81927.553   -5917.1059 
    1800     1728    1995.7969    81312.935   -5932.1442 
    1900     1728    2019.9471    75646.437     -5950.86 
    2000     1728    1970.1204    81535.526   -5937.2295 
    2100     1728     2076.092    80832.337   -5924.1511 
    2200     1728    2061.4756    80715.495   -5926.7165 
    2300     1728    1982.1736    84607.664   -5922.6554 
    2400     1728    2000.5554    83964.046   -5924.5903 
    2500     1728    1988.8919    84057.551   -5925.0703 
    2600     1728    2038.6768    80417.445   -5931.1694 
    2700     1728    1962.4832    78650.047   -5949.2159 
    2800     1728    1969.0905    77622.037   -5949.4793 
    2900     1728    2013.5415    83689.516   -5922.8034 
    3000     1728    2020.4607    80363.595   -5934.3115 
    3100     1728    2037.0883    83036.434    -5918.446 
    3200     1728    2035.9504    80772.655   -5929.8558 
    3300     1728    2020.1541    83620.668   -5921.2648 
    3400     1728    2022.1293    78266.779   -5940.9608 
    3500     1728     1995.881    75047.455   -5958.9874 
    3600     1728    1912.3088    75874.851   -5969.0348 
    3700     1728    1966.3286    80346.097   -5945.0345 
    3800     1728    1955.3483     80031.77   -5944.9902 
    3900     1728     1984.165    76698.951   -5948.3778 
    4000     1728    1888.2866    82407.163   -5949.3618 
    4100     1728    2049.6518    82423.005   -5917.9249 
    4200     1728    2026.1839    80169.024   -5932.4857 
    4300     1728    1983.3408    81631.028   -5933.5801 
    4400     1728    1994.3725    79325.505   -5940.7024 
    4500     1728    1997.3969    82235.429   -5933.9514 
    4600     1728    1940.7263    81577.097   -5945.4623 
    4700     1728    1995.5384    76795.481   -5949.8521 
    4800     1728    1998.7142    80349.531   -5931.2172 
    4900     1728    1982.5485    80467.824   -5933.6939 
    5000     1728     1957.396     80176.11   -5941.7451 
    5100     1728    2048.9572    79676.021   -5925.9103 
    5200     1728    2027.4723    77445.934    -5939.849 
    5300     1728    1979.9567    78563.832   -5943.3472 
    5400     1728    1985.7232    79950.545   -5938.0304 
    5500     1728    2046.7231      81815.7   -5925.1912 
    5600     1728    1970.2305    79977.879    -5941.656 
    5700     1728    1958.6335    79684.407   -5946.4555 
    5800     1728    1955.3497     82776.87   -5936.8041 
    5900     1728    2037.0428    84539.056    -5912.544 
    6000     1728    1975.8512    78422.188   -5947.4632 
    6100     1728    2009.3492    78545.706   -5940.8847 
    6200     1728    2016.7822    77377.072   -5942.2242 
    6300     1728    1996.5279    81383.176   -5933.1258 
    6400     1728    1988.2987     84525.94   -5920.5936 
    6500     1728    2020.5153     81297.24   -5928.0596 
    6600     1728    2027.0348    77672.561   -5944.1485 
    6700     1728    2002.7056    76255.112   -5951.5754 
    6800     1728    1971.8679    78726.728   -5947.6607 
    6900     1728     1963.415    76064.915   -5957.2437 
    7000     1728    2013.7314    79135.494   -5935.8757 
    7100     1728    1977.5548    78182.239    -5944.977 
    7200     1728    1934.4949     73857.34   -5972.7553 
    7300     1728    1977.2398    75984.919   -5956.2394 
    7400     1728    1994.2012    77983.076   -5946.2057 
    7500     1728    1936.4733    78030.987   -5953.8066 
    7600     1728    1959.4416    78264.042   -5950.1328 
    7700     1728    2012.6117     80376.39   -5933.2488 
    7800     1728    1976.7489    82475.234   -5932.2924 
    7900     1728    2034.3372    78778.379   -5936.1083 
    8000     1728    2014.8422    79655.678   -5935.5092 
    8100     1728    2044.2795    77206.745   -5939.8775 
    8200     1728    1948.4001    78062.531   -5954.6876 
    8300     1728    1997.0243    83208.302   -5928.4541 
    8400     1728    2008.8538    80567.826   -5932.1266 
    8500     1728     2010.142     81288.29   -5930.4175 
    8600     1728    1991.5657    79203.576   -5943.4592 
    8700     1728    1941.7139     78484.44   -5956.2752 
    8800     1728    1990.3862    78135.646   -5949.4305 
    8900     1728    1905.8565     79338.41   -5959.6915 
    9000     1728    1973.9338    81755.668   -5940.9308 
    9100     1728    1917.0905    79656.689   -5959.9476 
    9200     1728     1951.857    78559.561   -5956.1134 
    9300     1728    1963.3637    77482.339    -5953.538 
    9400     1728    2010.1466    83442.338   -5922.2406 
    9500     1728    2010.3066    79482.326   -5940.6753 
    9600     1728     1980.937    77241.345    -5952.781 
    9700     1728    1956.9487     78575.91   -5953.0596 
    9800     1728    1989.4229    79591.586   -5942.5897 
    9900     1728    1972.5558    80814.524   -5938.4273 
   10000     1728    1978.2749    80562.222   -5938.8465 
Loop time of 37.0554 on 1 procs for 10000 steps with 1728 atoms

Performance: 23.316 ns/day, 1.029 hours/ns, 269.866 timesteps/s
99.8% CPU use with 1 MPI tasks x no OpenMP threads

MPI task timing breakdown:
Section |  min time  |  avg time  |  max time  |%varavg| %total
---------------------------------------------------------------
Pair    | 30.978     | 30.978     | 30.978     |   0.0 | 83.60
Neigh   | 3.4133     | 3.4133     | 3.4133     |   0.0 |  9.21
Comm    | 0.19654    | 0.19654    | 0.19654    |   0.0 |  0.53
Output  | 1.6613     | 1.6613     | 1.6613     |   0.0 |  4.48
Modify  | 0.74659    | 0.74659    | 0.74659    |   0.0 |  2.01
Other   |            | 0.05946    |            |       |  0.16

Nlocal:    1728 ave 1728 max 1728 min
Histogram: 1 0 0 0 0 0 0 0 0 0
Nghost:    3867 ave 3867 max 3867 min
Histogram: 1 0 0 0 0 0 0 0 0 0
Neighs:    77222 ave 77222 max 77222 min
Histogram: 1 0 0 0 0 0 0 0 0 0

Total # of neighbors = 77222
Ave neighs/atom = 44.6887
Neighbor list builds = 1000
Dangerous builds = 1000
info system
Total wall time: 0:02:59
