read_data data.conc1 add append shift 14.52 0 0
  triclinic box = (0 0 0) to (29.04 14.52 14.52) with tilt (0 0 0)
  1 by 1 by 1 MPI processor grid
  reading atoms ...
  256 atoms
  read_data CPU = 0.000369211 secs
reset_timestep 0
timestep 0.001
thermo 100
thermo_style custom step atoms temp vol press pe etotal
dump 1 all custom 10 conc1.XYZ id type x y z
info groups
fix 0 all nve
fix 1 all langevin 400 400 0.1 761 zero yes
run 10000
Neighbor list info ...
  update every 1 steps, delay 10 steps, check yes
  max neighbors/atom: 2000, page size: 100000
  master list distance cutoff = 6.44433
  ghost atom cutoff = 6.44433
  binsize = 3.22217, bins = 10 5 5
  1 neighbor lists, perpetual/occasional/extra = 1 0 0
  (1) pair eam/alloy, perpetual
      attributes: half, newton on
      pair build: half/bin/newton/tri
      stencil: half/bin/3d/newton/tri
      bin: standard
Per MPI rank memory allocation (min/avg/max) = 4.68 | 4.68 | 4.68 Mbytes
Step Atoms Temp Volume Press PotEng TotEng 
       0      512            0    6122.5148   -26722.818   -1900.9497   -1900.9497 
     100      512    236.58406    6122.5148   -11002.927   -1884.6676   -1869.0408 
     200      512    358.68382    6122.5148   -4167.0048   -1878.2411   -1854.5493 
     300      512     386.4731    6122.5148   -781.33635   -1875.1465   -1849.6192 
     400      512    408.39055    6122.5148   -519.70147   -1874.8182   -1847.8432 
     500      512    373.70791    6122.5148   -1256.1539    -1875.229   -1850.5449 
     600      512    404.66279    6122.5148   -2421.7321   -1876.8428   -1850.1141 
     700      512    387.29792    6122.5148   -1978.3785    -1876.237   -1850.6553 
     800      512    382.51237    6122.5148   -1278.1186   -1875.5676    -1850.302 
     900      512    408.26325    6122.5148    -1556.993   -1875.9441   -1848.9775 
    1000      512    407.74378    6122.5148   -572.59695   -1875.1353    -1848.203 
    1100      512    432.29633    6122.5148   -237.17861   -1874.8551   -1846.3011 
    1200      512    404.92347    6122.5148   -1817.4327   -1876.3047   -1849.5587 
    1300      512    378.94178    6122.5148   -838.48175   -1874.9678    -1849.938 
    1400      512    389.18634    6122.5148   -362.03382   -1874.5603   -1848.8538 
    1500      512    410.07305    6122.5148   -1180.4177    -1875.562   -1848.4759 
    1600      512    415.23669    6122.5148    390.63073   -1874.1518   -1846.7246 
    1700      512    409.79952    6122.5148   -896.26023   -1875.3808   -1848.3127 
    1800      512    393.11085    6122.5148   -1073.7039   -1875.3134   -1849.3477 
    1900      512    386.32746    6122.5148   -1074.6312   -1875.3637    -1849.846 
    2000      512    395.24606    6122.5148    -1309.264   -1875.7295   -1849.6227 
    2100      512    406.16799    6122.5148   -1265.2317   -1875.7393   -1848.9111 
    2200      512    393.99271    6122.5148   -1636.3991   -1876.0269   -1850.0029 
    2300      512    421.31071    6122.5148    727.58971   -1873.5149   -1845.6865 
    2400      512    406.55111    6122.5148   -699.88684   -1875.2945    -1848.441 
    2500      512    418.24598    6122.5148   -1027.7941   -1875.3317   -1847.7058 
    2600      512    395.53638    6122.5148    519.95123   -1873.6558   -1847.5298 
    2700      512    425.16154    6122.5148   -522.30217   -1875.1913   -1847.1086 
    2800      512    442.52238    6122.5148    758.73267   -1873.9336   -1844.7041 
    2900      512    409.68416    6122.5148   -887.54212   -1875.6564    -1848.596 
    3000      512    430.27154    6122.5148   -1034.2833   -1876.0046   -1847.5843 
    3100      512    406.40023    6122.5148     1032.669   -1872.7751   -1845.9316 
    3200      512    412.00557    6122.5148     808.4497   -1873.6335   -1846.4197 
    3300      512    415.64513    6122.5148    302.85113   -1874.0798   -1846.6256 
    3400      512    398.19209    6122.5148    88.890983   -1874.1503   -1847.8489 
    3500      512    403.55353    6122.5148   -474.91687   -1875.2184    -1848.563 
    3600      512    399.61128    6122.5148   -1270.6799   -1875.6505   -1849.2554 
    3700      512    410.44412    6122.5148   -2668.7065   -1877.5145   -1850.4038 
    3800      512    406.87182    6122.5148   -902.82924   -1875.3808   -1848.5062 
    3900      512    396.65621    6122.5148   -956.65871   -1875.4496   -1849.2497 
    4000      512    373.48677    6122.5148   -995.11632   -1874.8903   -1850.2208 
    4100      512    359.60119    6122.5148   -866.17803   -1874.5663   -1850.8139 
    4200      512    389.50787    6122.5148   -1299.0367   -1875.3607    -1849.633 
    4300      512    416.76407    6122.5148   -558.60689   -1874.9901    -1847.462 
    4400      512    408.75912    6122.5148   -584.16133   -1875.1926   -1848.1932 
    4500      512    428.89026    6122.5148    136.10562   -1874.5416   -1846.2126 
    4600      512    380.45726    6122.5148     -139.587   -1874.2539   -1849.1239 
    4700      512    377.26412    6122.5148    -1326.427   -1875.7792   -1850.8602 
    4800      512    385.60808    6122.5148   -1577.0308   -1875.8404   -1850.3702 
    4900      512    392.84907    6122.5148   -2460.7381   -1876.7135    -1850.765 
    5000      512    386.25354    6122.5148   -1241.0141   -1875.4819   -1849.9691 
    5100      512    386.59269    6122.5148   -617.15717    -1874.651   -1849.1158 
    5200      512    378.11551    6122.5148    343.49085   -1873.4945   -1848.5193 
    5300      512    404.31634    6122.5148    264.17948   -1873.6523   -1846.9464 
    5400      512    411.77312    6122.5148   -2078.2329   -1876.8537   -1849.6553 
    5500      512      374.445    6122.5148   -1624.7746   -1875.6697   -1850.9368 
    5600      512    412.65828    6122.5148   -2059.7968   -1876.9194   -1849.6626 
    5700      512    389.88332    6122.5148    547.62086   -1873.4157   -1847.6631 
    5800      512    380.60422    6122.5148   -1099.7399   -1875.1337   -1849.9941 
    5900      512    398.09017    6122.5148   -741.60569    -1874.992   -1848.6974 
    6000      512    378.48066    6122.5148    -1684.659   -1875.9837   -1850.9843 
    6100      512    379.72633    6122.5148   -700.00921   -1874.4258   -1849.3441 
    6200      512    409.73047    6122.5148    116.75448   -1874.3102   -1847.2468 
    6300      512    378.28998    6122.5148   -552.65918   -1874.5778    -1849.591 
    6400      512      400.169    6122.5148   -470.27329   -1874.9479    -1848.516 
    6500      512    429.75704    6122.5148   -88.402866   -1874.6969   -1846.3106 
    6600      512    408.38589    6122.5148   -1045.8009   -1875.6591   -1848.6844 
    6700      512    432.56802    6122.5148   -857.37203   -1875.4626   -1846.8906 
    6800      512    393.15315    6122.5148    18.605516   -1874.5807   -1848.6122 
    6900      512     384.1895    6122.5148    448.08271   -1873.6783   -1848.3018 
    7000      512    412.80621    6122.5148   -932.79063   -1875.4017    -1848.135 
    7100      512    391.96342    6122.5148    -1849.289   -1876.1986   -1850.3086 
    7200      512    381.71081    6122.5148   -236.90796   -1874.2743   -1849.0616 
    7300      512    390.98313    6122.5148   -1904.0685   -1876.4585   -1850.6333 
    7400      512    392.32738    6122.5148   -694.58469   -1874.8798   -1848.9658 
    7500      512    412.86426    6122.5148   -198.41904   -1874.6434   -1847.3729 
    7600      512     394.3883    6122.5148   -171.48799   -1874.1779   -1848.1278 
    7700      512    421.28611    6122.5148     249.8203   -1874.3202   -1846.4935 
    7800      512    413.85795    6122.5148   -487.91731   -1874.7644   -1847.4282 
    7900      512    401.64983    6122.5148   -53.374203   -1874.5049   -1847.9751 
    8000      512      385.156    6122.5148   -707.67787   -1874.9755   -1849.5352 
    8100      512     401.6703    6122.5148    -642.5153   -1874.9558   -1848.4247 
    8200      512    369.96312    6122.5148   -329.37719   -1874.0446   -1849.6078 
    8300      512    380.21164    6122.5148    -2435.254   -1876.9856   -1851.8719 
    8400      512    401.40133    6122.5148   -479.74741   -1874.9589   -1848.4456 
    8500      512    397.68308    6122.5148   -681.33229   -1875.1364   -1848.8686 
    8600      512    393.90219    6122.5148   -1050.5095   -1875.2789   -1849.2609 
    8700      512    390.38273    6122.5148   -2255.5151   -1876.4881   -1850.7026 
    8800      512    382.78933    6122.5148   -764.54718   -1874.4482   -1849.1642 
    8900      512    379.24532    6122.5148   -921.30806   -1874.8547   -1849.8048 
    9000      512    402.23948    6122.5148   -2350.1361   -1877.1055   -1850.5368 
    9100      512    413.79039    6122.5148    -1180.616   -1875.9048   -1848.5732 
    9200      512    411.55277    6122.5148   -997.17064   -1875.4059    -1848.222 
    9300      512     396.9033    6122.5148   -2395.5468   -1876.9726   -1850.7563 
    9400      512    417.32409    6122.5148    -991.7672   -1875.4938   -1847.9287 
    9500      512    398.67592    6122.5148   -1061.1064   -1875.7733     -1849.44 
    9600      512    389.36671    6122.5148   -229.56592   -1874.1555   -1848.4371 
    9700      512    391.09227    6122.5148   -499.99874   -1875.0149   -1849.1825 
    9800      512    381.25899    6122.5148   -557.94926   -1874.5253   -1849.3424 
    9900      512    402.92077    6122.5148   -1743.5791   -1876.4937     -1849.88 
   10000      512    413.54787    6122.5148   -728.26854   -1875.1376    -1847.822 
Loop time of 10.5307 on 1 procs for 10000 steps with 512 atoms

Performance: 82.046 ns/day, 0.293 hours/ns, 949.601 timesteps/s
99.9% CPU use with 1 MPI tasks x no OpenMP threads

MPI task timing breakdown:
Section |  min time  |  avg time  |  max time  |%varavg| %total
---------------------------------------------------------------
Pair    | 8.741      | 8.741      | 8.741      |   0.0 | 83.00
Neigh   | 0.9884     | 0.9884     | 0.9884     |   0.0 |  9.39
Comm    | 0.098858   | 0.098858   | 0.098858   |   0.0 |  0.94
Output  | 0.44408    | 0.44408    | 0.44408    |   0.0 |  4.22
Modify  | 0.23035    | 0.23035    | 0.23035    |   0.0 |  2.19
Other   |            | 0.02805    |            |       |  0.27

Nlocal:    512 ave 512 max 512 min
Histogram: 1 0 0 0 0 0 0 0 0 0
Nghost:    2075 ave 2075 max 2075 min
Histogram: 1 0 0 0 0 0 0 0 0 0
Neighs:    21806 ave 21806 max 21806 min
Histogram: 1 0 0 0 0 0 0 0 0 0

Total # of neighbors = 21806
Ave neighs/atom = 42.5898
Neighbor list builds = 999
Dangerous builds = 998
info system
delete_atoms group all
Deleted 512 atoms, new total = 0
info system
log log.mixedConc
