LAMMPS (2 Aug 2019)
# lammps input file for finding internal energy
# Setup simulation and run using python

#-------------- INITIALIZE SIMULATION-----------------
clear

log log.concIntEnergy
