read_data data.conc1 add append group conc1Atoms
  triclinic box = (0 0 0) to (29.04 14.52 14.52) with tilt (0 0 0)
  1 by 1 by 1 MPI processor grid
  reading atoms ...
  256 atoms
  read_data CPU = 0.000213248 secs
read_data data.conc2 add append shift 14.52 0 0 group conc2Atoms
  triclinic box = (0 0 0) to (29.04 14.52 14.52) with tilt (0 0 0)
  1 by 1 by 1 MPI processor grid
  reading atoms ...
  256 atoms
  read_data CPU = 0.000177767 secs
reset_timestep 0
timestep 0.001
thermo 100
thermo_style custom step atoms temp vol press pe etotal
dump 2 all custom 10 mixed.XYZ id type x y z
info groups
fix 0 all nve
fix 1 all langevin 400 400 0.1 761 zero yes
run 10000
Per MPI rank memory allocation (min/avg/max) = 5.95 | 5.95 | 5.95 Mbytes
Step Atoms Temp Volume Press PotEng TotEng 
       0      512            0    6122.5148   -69740.165   -2046.9612   -2046.9612 
     100      512    242.82686    6122.5148   -51421.973   -2031.5751   -2015.5359 
     200      512    361.78402    6122.5148   -43258.133   -2025.7174   -2001.8209 
     300      512    382.48746    6122.5148   -39636.206   -2022.6581    -1997.394 
     400      512      407.888    6122.5148    -39092.21   -2022.6875   -1995.7457 
     500      512    375.44343    6122.5148   -39890.352   -2022.9786   -1998.1798 
     600      512    394.05112    6122.5148   -41121.421    -2024.378   -1998.3502 
     700      512    389.04437    6122.5148   -40966.666   -2023.9507   -1998.2536 
     800      512    389.78018    6122.5148    -40230.19   -2023.3861   -1997.6404 
     900      512    411.92954    6122.5148   -39679.288   -2023.2943   -1996.0855 
    1000      512    406.96011    6122.5148   -38936.259   -2022.5611   -1995.6806 
    1100      512    423.21861    6122.5148   -38967.944   -2022.6784    -1994.724 
    1200      512    407.64228    6122.5148   -40964.306    -2024.502   -1997.5765 
    1300      512    375.49077    6122.5148   -39701.685   -2022.5685   -1997.7666 
    1400      512    391.93419    6122.5148   -40194.623   -2022.6143   -1996.7263 
    1500      512    404.01485    6122.5148   -40274.143   -2023.2402   -1996.5543 
    1600      512    412.42519    6122.5148   -38119.605   -2021.8975   -1994.6561 
    1700      512     407.5247    6122.5148   -39765.569   -2023.1431   -1996.2253 
    1800      512    399.56359    6122.5148   -40405.494   -2023.2956   -1996.9037 
    1900      512    385.92949    6122.5148   -40961.562   -2023.2653   -1997.7739 
    2000      512    395.56878    6122.5148   -40124.598   -2023.1222   -1996.9941 
    2100      512    406.44965    6122.5148   -40017.341   -2023.2396   -1996.3929 
    2200      512    405.04372    6122.5148   -40723.688   -2024.0886   -1997.3347 
    2300      512    416.50729    6122.5148   -37941.311   -2020.8932   -1993.3821 
    2400      512    402.18857    6122.5148    -40087.68   -2022.7514   -1996.1861 
    2500      512    410.85714    6122.5148   -39748.743   -2022.4976   -1995.3597 
    2600      512    389.83896    6122.5148   -38008.083   -2021.1061   -1995.3565 
    2700      512    427.93359    6122.5148   -39043.568   -2023.0217   -1994.7559 
    2800      512    437.49715    6122.5148   -36965.714   -2021.4934   -1992.5958 
    2900      512     409.8632    6122.5148   -39482.301   -2023.3675   -1996.2953 
    3000      512    434.47015    6122.5148   -39842.396   -2023.6297   -1994.9321 
    3100      512    408.23453    6122.5148   -37859.184   -2020.5749   -1993.6102 
    3200      512    406.18402    6122.5148   -37850.575   -2020.8968   -1994.0675 
    3300      512     423.2619    6122.5148   -38338.222   -2021.9512   -1993.9939 
    3400      512    397.91656    6122.5148   -38749.078   -2022.0954   -1995.8122 
    3500      512    402.03289    6122.5148   -38858.763   -2023.0614   -1996.5063 
    3600      512    397.44593    6122.5148   -39370.712   -2023.5098   -1997.2577 
    3700      512      411.362    6122.5148   -41337.485   -2025.2955   -1998.1242 
    3800      512    409.59584    6122.5148   -39606.799   -2023.1286    -1996.074 
    3900      512    397.13604    6122.5148   -39411.435   -2022.8714   -1996.6398 
    4000      512    375.52227    6122.5148   -39510.358    -2022.551    -1997.747 
    4100      512    356.50855    6122.5148   -40017.522     -2022.57   -1999.0219 
    4200      512    389.63241    6122.5148   -40481.801   -2023.2819   -1997.5459 
    4300      512    401.82059    6122.5148   -39049.698   -2022.2997   -1995.7586 
    4400      512    409.00136    6122.5148    -39136.95   -2023.0736   -1996.0582 
    4500      512    429.28783    6122.5148   -38312.127   -2022.1556   -1993.8003 
    4600      512    385.95315    6122.5148   -38473.146   -2021.9092   -1996.4162 
    4700      512    376.11113    6122.5148   -39738.327   -2023.2605   -1998.4176 
    4800      512    387.17903    6122.5148   -40990.714   -2023.7669   -1998.1929 
    4900      512    384.01371    6122.5148   -41139.771   -2023.6317   -1998.2669 
    5000      512    385.78033    6122.5148   -40407.031   -2023.0353   -1997.5537 
    5100      512    392.63929    6122.5148   -40109.745   -2022.5165   -1996.5819 
    5200      512    379.27559    6122.5148   -38780.798   -2021.0495   -1995.9976 
    5300      512    410.74173    6122.5148   -38033.461   -2021.5068   -1994.3765 
    5400      512    410.00597    6122.5148   -40460.109   -2024.1723   -1997.0906 
    5500      512    379.58304    6122.5148   -39999.101   -2022.9982    -1997.926 
    5600      512    415.70986    6122.5148   -41031.806   -2024.2884     -1996.83 
    5700      512    391.83612    6122.5148   -37995.927   -2021.2999   -1995.4184 
    5800      512    380.41501    6122.5148   -39730.823   -2022.7352    -1997.608 
    5900      512    401.20532    6122.5148   -39760.442   -2022.3834    -1995.883 
    6000      512    385.44921    6122.5148   -40327.795   -2023.0494   -1997.5898 
    6100      512    384.17633    6122.5148    -39576.39   -2022.2013   -1996.8257 
    6200      512    408.09417    6122.5148   -38364.645    -2021.704   -1994.7486 
    6300      512    376.53879    6122.5148     -38761.7   -2022.1905   -1997.3194 
    6400      512    402.94441    6122.5148   -39508.236   -2023.0598   -1996.4446 
    6500      512    427.61138    6122.5148   -37755.496   -2021.8688   -1993.6243 
    6600      512    402.02361    6122.5148   -39301.356   -2022.7752   -1996.2207 
    6700      512    432.14474    6122.5148   -39342.077   -2023.0592   -1994.5152 
    6800      512    398.48652    6122.5148   -38884.478   -2022.5902   -1996.2694 
    6900      512    380.24129    6122.5148    -38346.44   -2021.4073   -1996.2916 
    7000      512    414.11344    6122.5148   -39836.339   -2023.1494   -1995.7964 
    7100      512    386.13993    6122.5148   -40438.239   -2023.4775   -1997.9722 
    7200      512    384.76858    6122.5148   -39242.237   -2022.1005   -1996.6857 
    7300      512    393.88955    6122.5148   -40309.966   -2023.8638   -1997.8466 
    7400      512    396.64059    6122.5148   -39250.597   -2022.3121   -1996.1132 
    7500      512    410.46802    6122.5148   -38872.356   -2021.5532    -1994.441 
    7600      512    390.60468    6122.5148   -38815.943   -2021.7445   -1995.9443 
    7700      512    421.02733    6122.5148   -38602.129   -2021.6848   -1993.8751 
    7800      512    418.65695    6122.5148     -39562.4   -2022.7735   -1995.1204 
    7900      512    412.05364    6122.5148   -39116.496   -2022.0439    -1994.827 
    8000      512     385.3903    6122.5148   -39490.457    -2022.654   -1997.1982 
    8100      512    395.53972    6122.5148   -38794.515    -2022.481   -1996.3549 
    8200      512    372.39137    6122.5148   -39223.521   -2021.9371   -1997.3399 
    8300      512    384.84082    6122.5148   -41611.335   -2024.5296   -1999.1101 
    8400      512    401.00607    6122.5148    -39375.85   -2022.7111   -1996.2239 
    8500      512    390.76062    6122.5148   -38669.097   -2022.3387   -1996.5283 
    8600      512    398.13509    6122.5148   -39710.617    -2023.291   -1996.9934 
    8700      512    385.78427    6122.5148   -40485.381   -2023.9668    -1998.485 
    8800      512    386.04094    6122.5148   -39715.462    -2022.864   -1997.3653 
    8900      512    376.35854    6122.5148   -39991.238   -2022.6607   -1997.8015 
    9000      512    390.89317    6122.5148   -40582.325   -2024.2728   -1998.4536 
    9100      512    405.40457    6122.5148   -40278.665   -2023.0895   -1996.3117 
    9200      512    407.25025    6122.5148   -39626.828   -2022.7896     -1995.89 
    9300      512    397.84676    6122.5148   -41600.993   -2024.5528   -1998.2742 
    9400      512    411.87733    6122.5148   -39733.491   -2022.8792   -1995.6739 
    9500      512     407.1722    6122.5148   -40789.893    -2024.058   -1997.1635 
    9600      512    390.13683    6122.5148   -38918.571   -2021.9575   -1996.1882 
    9700      512    396.63591    6122.5148   -38906.738   -2022.3537   -1996.1551 
    9800      512    381.75284    6122.5148   -39323.753   -2022.1787   -1996.9631 
    9900      512    394.75316    6122.5148   -39737.524   -2023.6215   -1997.5473 
   10000      512    415.94718    6122.5148   -38997.844   -2022.8972   -1995.4231 
Loop time of 11.1389 on 1 procs for 10000 steps with 512 atoms

Performance: 77.566 ns/day, 0.309 hours/ns, 897.754 timesteps/s
99.7% CPU use with 1 MPI tasks x no OpenMP threads

MPI task timing breakdown:
Section |  min time  |  avg time  |  max time  |%varavg| %total
---------------------------------------------------------------
Pair    | 8.8337     | 8.8337     | 8.8337     |   0.0 | 79.30
Neigh   | 0.99453    | 0.99453    | 0.99453    |   0.0 |  8.93
Comm    | 0.11967    | 0.11967    | 0.11967    |   0.0 |  1.07
Output  | 0.92962    | 0.92962    | 0.92962    |   0.0 |  8.35
Modify  | 0.22997    | 0.22997    | 0.22997    |   0.0 |  2.06
Other   |            | 0.0314     |            |       |  0.28

Nlocal:    512 ave 512 max 512 min
Histogram: 1 0 0 0 0 0 0 0 0 0
Nghost:    2075 ave 2075 max 2075 min
Histogram: 1 0 0 0 0 0 0 0 0 0
Neighs:    21807 ave 21807 max 21807 min
Histogram: 1 0 0 0 0 0 0 0 0 0

Total # of neighbors = 21807
Ave neighs/atom = 42.5918
Neighbor list builds = 999
Dangerous builds = 998
info system
Total wall time: 0:00:21
