read_data data.conc1 add append shift 14.52 0 0
  triclinic box = (0 0 0) to (29.04 14.52 14.52) with tilt (0 0 0)
  1 by 1 by 1 MPI processor grid
  reading atoms ...
  256 atoms
  read_data CPU = 0.000392801 secs
reset_timestep 0
timestep 0.001
thermo 100
thermo_style custom step atoms temp vol press pe etotal
dump 1 all custom 10 conc1.XYZ id type x y z
info groups
fix 0 all nve
fix 1 all langevin 400 400 0.1 761 zero yes
run 10000
Neighbor list info ...
  update every 1 steps, delay 10 steps, check yes
  max neighbors/atom: 2000, page size: 100000
  master list distance cutoff = 6.44433
  ghost atom cutoff = 6.44433
  binsize = 3.22217, bins = 10 5 5
  1 neighbor lists, perpetual/occasional/extra = 1 0 0
  (1) pair eam/alloy, perpetual
      attributes: half, newton on
      pair build: half/bin/newton/tri
      stencil: half/bin/3d/newton/tri
      bin: standard
Per MPI rank memory allocation (min/avg/max) = 4.68 | 4.68 | 4.68 Mbytes
Step Atoms Temp Volume Press PotEng TotEng 
       0      512            0    6122.5148   -24760.827    -1887.498    -1887.498 
     100      512    238.82546    6122.5148   -9013.0248    -1871.228   -1855.4531 
     200      512    357.58299    6122.5148   -2255.5159   -1864.7441    -1841.125 
     300      512    380.08196    6122.5148     807.2007   -1861.5911    -1836.486 
     400      512     412.7646    6122.5148    1018.7691   -1861.6867   -1834.4228 
     500      512    374.01197    6122.5148    568.23548   -1861.8175   -1837.1133 
     600      512    402.97771    6122.5148   -702.71135   -1863.5378   -1836.9203 
     700      512    388.08211    6122.5148     35.29791   -1862.7101   -1837.0766 
     800      512    384.61932    6122.5148    -72.46964   -1862.4359    -1837.031 
     900      512    408.33404    6122.5148    145.13275   -1862.6347   -1835.6634 
    1000      512    408.96878    6122.5148    1326.5411   -1861.6869   -1834.6737 
    1100      512    429.76593    6122.5148    1683.2813   -1861.3467   -1832.9598 
    1200      512    405.33104    6122.5148    275.15575   -1862.5126   -1835.7397 
    1300      512    381.50512    6122.5148    905.50567   -1861.5083   -1836.3091 
    1400      512    389.43558    6122.5148    1344.2974   -1861.3749   -1835.6519 
    1500      512    404.72352    6122.5148    715.95257   -1861.8814   -1835.1486 
    1600      512    411.70669    6122.5148    2460.0713   -1860.4107   -1833.2167 
    1700      512    410.67005    6122.5148    837.19313   -1861.9141   -1834.7885 
    1800      512    391.90185    6122.5148      1198.52   -1861.5788    -1835.693 
    1900      512    384.61825    6122.5148    657.12112   -1861.6973   -1836.2925 
    2000      512    401.04664    6122.5148     808.1752   -1862.1679    -1835.678 
    2100      512    412.46701    6122.5148    363.13337   -1862.4933   -1835.2491 
    2200      512    392.95556    6122.5148    353.91385   -1862.5755     -1836.62 
    2300      512    422.03515    6122.5148     2497.092   -1860.0784   -1832.2021 
    2400      512    405.81829    6122.5148    1146.7159   -1861.5556   -1834.7505 
    2500      512    418.52495    6122.5148    1064.4784   -1861.6775   -1834.0331 
    2600      512    394.38262    6122.5148    2752.6647   -1859.7199   -1833.6702 
    2700      512    426.99123    6122.5148     1565.747   -1861.5276    -1833.324 
    2800      512    440.83951    6122.5148    3016.6287   -1859.8368   -1830.7185 
    2900      512     410.9133    6122.5148     1117.797   -1861.8563   -1834.7147 
    3000      512    436.73225    6122.5148    595.23419   -1862.5797   -1833.7327 
    3100      512    407.70732    6122.5148    3043.8512   -1859.3445   -1832.4147 
    3200      512    405.45688    6122.5148    2807.8802   -1859.8973    -1833.116 
    3300      512    417.38473    6122.5148    2163.4402   -1860.4318   -1832.8627 
    3400      512    402.68044    6122.5148    1912.3647   -1860.7812   -1834.1833 
    3500      512    401.68249    6122.5148    925.00177   -1861.6865   -1835.1546 
    3600      512    398.92807    6122.5148    1094.3632   -1861.8292   -1835.4793 
    3700      512    406.35401    6122.5148   -1083.8069   -1864.0096   -1837.1691 
    3800      512    406.34043    6122.5148    898.90323   -1862.0421   -1835.2026 
    3900      512    398.40037    6122.5148     796.2703   -1861.7963   -1835.4812 
    4000      512    368.24908    6122.5148    991.65653   -1861.2562   -1836.9327 
    4100      512    360.04077    6122.5148    694.18814   -1861.3097   -1837.5283 
    4200      512    387.22204    6122.5148    867.22809   -1861.6669   -1836.0902 
    4300      512     412.0554    6122.5148    1651.2692   -1861.1503   -1833.9332 
    4400      512    407.63864    6122.5148     1129.481   -1861.5751   -1834.6497 
    4500      512    433.83704    6122.5148    1414.1434   -1861.6285   -1832.9727 
    4600      512    388.63675    6122.5148    1547.4828   -1860.9228   -1835.2526 
    4700      512     378.0624    6122.5148    604.03459   -1862.1386   -1837.1669 
    4800      512    389.26102    6122.5148   -140.10154   -1862.6092   -1836.8978 
    4900      512    398.30229    6122.5148   -339.49204   -1863.2246    -1836.916 
    5000      512    382.38562    6122.5148    610.31449   -1861.8453    -1836.588 
    5100      512    385.73089    6122.5148    1464.1457   -1861.0484   -1835.5701 
    5200      512    382.29422    6122.5148      2309.82   -1859.9676   -1834.7163 
    5300      512    408.78556    6122.5148      2216.92   -1860.1946   -1833.1935 
    5400      512    406.97545    6122.5148    95.110006    -1862.865   -1835.9835 
    5500      512    374.82961    6122.5148    444.86539   -1861.9202    -1837.162 
    5600      512    410.39487    6122.5148    157.64729   -1863.1461   -1836.0387 
    5700      512    392.95043    6122.5148    2385.3091   -1859.9016   -1833.9465 
    5800      512    381.87057    6122.5148    578.01818   -1861.8049   -1836.5816 
    5900      512    396.20084    6122.5148    874.61261   -1861.7167   -1835.5469 
    6000      512    380.56708    6122.5148    332.22679   -1862.3036   -1837.1664 
    6100      512    382.53351    6122.5148     1522.093   -1860.8243   -1835.5572 
    6200      512     417.0276    6122.5148    2002.0117    -1860.851   -1833.3055 
    6300      512    379.83631    6122.5148    1192.9938   -1861.2825   -1836.1935 
    6400      512    400.98891    6122.5148    1394.8554   -1861.3311    -1834.845 
    6500      512    424.75804    6122.5148    1893.8457   -1861.0396   -1832.9835 
    6600      512    408.70934    6122.5148     845.2222   -1861.9341    -1834.938 
    6700      512    434.58334    6122.5148    996.99702   -1861.8611    -1833.156 
    6800      512    396.42765    6122.5148    1830.4123   -1860.9451   -1834.7603 
    6900      512    387.47256    6122.5148    2275.3648   -1859.9291   -1834.3358 
    7000      512    413.53957    6122.5148    1230.0368   -1861.6773   -1834.3622 
    7100      512    387.09386    6122.5148    278.98356   -1862.5277   -1836.9594 
    7200      512      381.385    6122.5148    1145.4383   -1861.0421   -1835.8509 
    7300      512    388.55607    6122.5148   -119.06888   -1862.6979   -1837.0331 
    7400      512    388.59717    6122.5148    1036.6135   -1861.4344   -1835.7668 
    7500      512    418.31603    6122.5148    1579.9002    -1861.311   -1833.6804 
    7600      512    395.66824    6122.5148     1780.269    -1860.764   -1834.6293 
    7700      512    418.28362    6122.5148    1951.8615   -1860.9878   -1833.3593 
    7800      512    412.10417    6122.5148    1141.8658   -1861.5718   -1834.3515 
    7900      512     400.7678    6122.5148     1703.969   -1860.9429   -1834.4715 
    8000      512    387.15562    6122.5148    945.57911   -1861.7771   -1836.2048 
    8100      512    402.28171    6122.5148    895.94789   -1861.7468   -1835.1753 
    8200      512    370.46497    6122.5148     1624.238   -1860.2933   -1835.8233 
    8300      512    379.97993    6122.5148   -646.59495   -1863.4066   -1838.3082 
    8400      512    399.90838    6122.5148    1233.8645   -1861.4024   -1834.9877 
    8500      512    392.13641    6122.5148    1096.5305   -1861.7846   -1835.8832 
    8600      512     388.5018    6122.5148    583.45788   -1861.8821   -1836.2208 
    8700      512    385.89751    6122.5148   -84.216877   -1862.8591   -1837.3698 
    8800      512    383.58804    6122.5148    905.64044   -1861.3314   -1835.9947 
    8900      512    380.50016    6122.5148    893.97931   -1861.5876   -1836.4549 
    9000      512     404.7397    6122.5148   -437.60741   -1863.3081   -1836.5743 
    9100      512    414.09755    6122.5148    1004.9165   -1861.9878   -1834.6359 
    9200      512    412.17877    6122.5148     785.0527   -1862.1958   -1834.9706 
    9300      512    392.10819    6122.5148   -370.78603   -1863.1873   -1837.2878 
    9400      512    419.76023    6122.5148    717.02426   -1862.1609    -1834.435 
    9500      512    401.46936    6122.5148    575.16533   -1862.4077   -1835.8899 
    9600      512    388.71005    6122.5148    1776.3624   -1860.6435   -1834.9684 
    9700      512    397.02181    6122.5148    1168.8048   -1861.5492   -1835.3251 
    9800      512     379.3913    6122.5148    1506.1032   -1860.7326   -1835.6731 
    9900      512    404.40616    6122.5148   -133.87125    -1863.279   -1836.5672 
   10000      512     412.7903    6122.5148     850.0864   -1861.9621   -1834.6965 
Loop time of 10.7072 on 1 procs for 10000 steps with 512 atoms

Performance: 80.693 ns/day, 0.297 hours/ns, 933.949 timesteps/s
100.0% CPU use with 1 MPI tasks x no OpenMP threads

MPI task timing breakdown:
Section |  min time  |  avg time  |  max time  |%varavg| %total
---------------------------------------------------------------
Pair    | 8.9285     | 8.9285     | 8.9285     |   0.0 | 83.39
Neigh   | 0.98733    | 0.98733    | 0.98733    |   0.0 |  9.22
Comm    | 0.096635   | 0.096635   | 0.096635   |   0.0 |  0.90
Output  | 0.43815    | 0.43815    | 0.43815    |   0.0 |  4.09
Modify  | 0.2295     | 0.2295     | 0.2295     |   0.0 |  2.14
Other   |            | 0.02709    |            |       |  0.25

Nlocal:    512 ave 512 max 512 min
Histogram: 1 0 0 0 0 0 0 0 0 0
Nghost:    2075 ave 2075 max 2075 min
Histogram: 1 0 0 0 0 0 0 0 0 0
Neighs:    21815 ave 21815 max 21815 min
Histogram: 1 0 0 0 0 0 0 0 0 0

Total # of neighbors = 21815
Ave neighs/atom = 42.6074
Neighbor list builds = 999
Dangerous builds = 998
info system
delete_atoms group all
Deleted 512 atoms, new total = 0
info system
log log.Conc2
