read_data data.conc1 add append shift 14.52 0 0
  triclinic box = (0 0 0) to (29.04 14.52 14.52) with tilt (0 0 0)
  1 by 1 by 1 MPI processor grid
  reading atoms ...
  256 atoms
  read_data CPU = 0.000330413 secs
reset_timestep 0
timestep 0.001
thermo 100
thermo_style custom step atoms temp vol press pe etotal
dump 1 all custom 10 conc1.XYZ id type x y z
info groups
fix 0 all nve
fix 1 all langevin 400 400 0.1 761 zero yes
run 10000
Neighbor list info ...
  update every 1 steps, delay 10 steps, check yes
  max neighbors/atom: 2000, page size: 100000
  master list distance cutoff = 6.44433
  ghost atom cutoff = 6.44433
  binsize = 3.22217, bins = 10 5 5
  1 neighbor lists, perpetual/occasional/extra = 1 0 0
  (1) pair eam/alloy, perpetual
      attributes: half, newton on
      pair build: half/bin/newton/tri
      stencil: half/bin/3d/newton/tri
      bin: standard
Per MPI rank memory allocation (min/avg/max) = 4.68 | 4.68 | 4.68 Mbytes
Step Atoms Temp Volume Press PotEng TotEng 
       0      512            0    6122.5148   -24863.379   -1891.2295   -1891.2295 
     100      512    237.62405    6122.5148   -9097.6953   -1874.7331   -1859.0376 
     200      512    358.94311    6122.5148   -2317.8532   -1868.5367   -1844.8278 
     300      512    386.70407    6122.5148    752.54687   -1865.6208   -1840.0782 
     400      512    409.47726    6122.5148    1103.6076   -1865.3411   -1838.2943 
     500      512    375.88285    6122.5148     759.3103   -1865.2981   -1840.4703 
     600      512    403.11513    6122.5148   -687.30684   -1867.2294   -1840.6028 
     700      512    387.64204    6122.5148   -22.288883   -1866.5307   -1840.9262 
     800      512    377.60476    6122.5148    248.23674    -1865.863   -1840.9215 
     900      512    407.46276    6122.5148   -11.175325   -1866.4712   -1839.5575 
    1000      512    406.24745    6122.5148    1107.7758   -1865.5238   -1838.6904 
    1100      512    429.82011    6122.5148    1555.0593   -1865.0818   -1836.6913 
    1200      512     408.0498    6122.5148    288.49459    -1866.326   -1839.3735 
    1300      512    378.65571    6122.5148    771.07911   -1865.2351   -1840.2241 
    1400      512    383.21432    6122.5148    1134.2357   -1864.9064   -1839.5943 
    1500      512    405.72231    6122.5148    701.30658   -1865.8621   -1839.0634 
    1600      512    409.60673    6122.5148    1795.0613   -1864.3879   -1837.3326 
    1700      512    405.03868    6122.5148     730.3256   -1865.7746    -1839.021 
    1800      512    392.62221    6122.5148    450.12586   -1865.7414   -1839.8079 
    1900      512    381.52467    6122.5148    407.64624    -1865.712   -1840.5116 
    2000      512     404.4708    6122.5148    474.15038   -1866.0064   -1839.2903 
    2100      512    409.23498    6122.5148    678.63222   -1865.9702   -1838.9395 
    2200      512     398.0016    6122.5148    317.86441   -1866.1702   -1839.8815 
    2300      512    418.50818    6122.5148    2737.5149   -1863.4663    -1835.823 
    2400      512    409.09207    6122.5148    1101.5582   -1865.3442   -1838.3228 
    2500      512    421.61039    6122.5148     1119.851   -1865.1783   -1837.3301 
    2600      512    396.65873    6122.5148    2461.3008   -1863.6168   -1837.4167 
    2700      512    422.27205    6122.5148    1485.0745   -1865.3093   -1837.4174 
    2800      512    438.49494    6122.5148    2594.4142   -1863.7929   -1834.8295 
    2900      512    402.28015    6122.5148    833.52491   -1865.7148   -1839.1434 
    3000      512    427.21123    6122.5148    923.78666   -1866.1216   -1837.9034 
    3100      512    406.42706    6122.5148    3240.6415   -1862.8432   -1835.9979 
    3200      512    408.85255    6122.5148    2807.1026   -1863.4237   -1836.4182 
    3300      512    412.74953    6122.5148    2183.2983   -1864.2127   -1836.9498 
    3400      512    398.92052    6122.5148    1544.6879   -1864.7554   -1838.4059 
    3500      512    400.94015    6122.5148    869.61879   -1865.5374   -1839.0545 
    3600      512    403.78926    6122.5148    460.08431   -1866.0383   -1839.3673 
    3700      512    402.30511    6122.5148   -657.64307   -1867.5142   -1840.9412 
    3800      512    409.36299    6122.5148    651.49535   -1865.9623    -1838.923 
    3900      512    401.37447    6122.5148    652.84212   -1865.8024   -1839.2909 
    4000      512    370.31188    6122.5148    596.22863   -1865.0413   -1840.5815 
    4100      512    355.34446    6122.5148    844.91858   -1864.8593   -1841.3881 
    4200      512    384.37478    6122.5148    525.96521   -1865.4406   -1840.0519 
    4300      512    420.46118    6122.5148    1763.3874   -1864.7086   -1836.9363 
    4400      512    407.19523    6122.5148     1223.764   -1865.1396   -1838.2436 
    4500      512    431.20978    6122.5148    1710.1281   -1864.9754   -1836.4932 
    4600      512    379.77431    6122.5148    1671.5545   -1864.3515   -1839.2667 
    4700      512    374.32048    6122.5148    642.10239   -1865.7198   -1840.9953 
    4800      512    385.15301    6122.5148   -123.29992   -1866.1665   -1840.7264 
    4900      512    394.65242    6122.5148   -369.17974   -1866.7169   -1840.6493 
    5000      512    386.90656    6122.5148    488.72531     -1865.78   -1840.2241 
    5100      512    387.53047    6122.5148    1101.7756   -1865.0205   -1839.4233 
    5200      512     375.7692    6122.5148    2341.5883    -1863.414   -1838.5937 
    5300      512    409.56595    6122.5148    2293.5809   -1863.8023   -1836.7497 
    5400      512    406.05453    6122.5148    271.68772   -1866.3113   -1839.4906 
    5500      512    379.85531    6122.5148    324.84565   -1865.7987   -1840.7085 
    5600      512     413.3951    6122.5148    13.585242    -1866.872   -1839.5665 
    5700      512    390.09258    6122.5148    2571.9143    -1863.412   -1837.6456 
    5800      512    382.42973    6122.5148    365.86961   -1865.7133   -1840.4531 
    5900      512    400.48952    6122.5148    726.66509   -1865.7749   -1839.3218 
    6000      512    377.19066    6122.5148    275.01022    -1865.924   -1841.0098 
    6100      512    383.99206    6122.5148    1503.4709   -1864.5385   -1839.1751 
    6200      512    413.45319    6122.5148    1487.3591   -1864.7637   -1837.4543 
    6300      512    378.87818    6122.5148    1232.0452   -1864.8493   -1839.8237 
    6400      512     399.9231    6122.5148    1504.1928   -1865.0231   -1838.6074 
    6500      512    432.54737    6122.5148    1746.8553   -1864.9688   -1836.3982 
    6600      512     410.0121    6122.5148    688.51567   -1865.8778   -1838.7957 
    6700      512    431.76883    6122.5148    1029.7539   -1865.6431   -1837.1239 
    6800      512    398.57117    6122.5148    1308.4884   -1865.2513   -1838.9249 
    6900      512    388.53595    6122.5148    1837.6358   -1864.1898   -1838.5262 
    7000      512    416.85252    6122.5148    888.33592   -1865.7785   -1838.2446 
    7100      512    388.78298    6122.5148    422.24199    -1866.126   -1840.4461 
    7200      512    391.66702    6122.5148    1282.9531   -1864.7258   -1838.8555 
    7300      512    390.16327    6122.5148    13.259613   -1866.4457   -1840.6747 
    7400      512    393.27365    6122.5148    1000.7309   -1865.1046   -1839.1281 
    7500      512    414.32486    6122.5148    2022.7696   -1864.4031   -1837.0362 
    7600      512    394.08123    6122.5148    2066.4549   -1864.0409    -1838.011 
    7700      512    428.15642    6122.5148    2137.7728   -1864.5802   -1836.2997 
    7800      512      417.982    6122.5148    1260.4359   -1865.2442   -1837.6357 
    7900      512    400.83803    6122.5148    1889.5792   -1864.3531   -1837.8769 
    8000      512    382.80299    6122.5148    1152.8557   -1865.3134   -1840.0285 
    8100      512    404.30243    6122.5148    820.45228   -1865.5191   -1838.8142 
    8200      512    373.92788    6122.5148    1591.4251    -1864.107   -1839.4083 
    8300      512    382.95962    6122.5148   -708.75871   -1867.2455   -1841.9503 
    8400      512    402.29521    6122.5148    1172.7114   -1865.1856   -1838.6133 
    8500      512    391.38898    6122.5148     891.1799    -1865.578    -1839.726 
    8600      512    396.26148    6122.5148    328.49498    -1865.877   -1839.7031 
    8700      512    387.54068    6122.5148   -223.59512   -1866.4758    -1840.878 
    8800      512      380.009    6122.5148    1004.5304   -1864.9174   -1839.8171 
    8900      512    382.25131    6122.5148     441.3606   -1865.6213   -1840.3729 
    9000      512    401.45374    6122.5148    -317.7243   -1867.1661   -1840.6493 
    9100      512    413.80852    6122.5148    632.11545   -1865.8354   -1838.5026 
    9200      512    414.66897    6122.5148    803.85832   -1865.9337    -1838.544 
    9300      512    396.38176    6122.5148   -163.33173   -1866.8256   -1840.6438 
    9400      512     416.5038    6122.5148    875.40911   -1865.9204   -1838.4095 
    9500      512    398.63071    6122.5148    119.46594   -1866.4544    -1840.124 
    9600      512    393.91928    6122.5148    1698.4083   -1864.4464   -1838.4273 
    9700      512    394.86891    6122.5148    1415.1088   -1865.1284   -1839.0466 
    9800      512     381.4215    6122.5148    1433.0162   -1864.6122   -1839.4186 
    9900      512    401.78352    6122.5148   -257.48452   -1866.8199   -1840.2813 
   10000      512     411.8622    6122.5148    895.91924   -1865.5522   -1838.3479 
Loop time of 10.5676 on 1 procs for 10000 steps with 512 atoms

Performance: 81.760 ns/day, 0.294 hours/ns, 946.292 timesteps/s
99.8% CPU use with 1 MPI tasks x no OpenMP threads

MPI task timing breakdown:
Section |  min time  |  avg time  |  max time  |%varavg| %total
---------------------------------------------------------------
Pair    | 8.7944     | 8.7944     | 8.7944     |   0.0 | 83.22
Neigh   | 0.98652    | 0.98652    | 0.98652    |   0.0 |  9.34
Comm    | 0.095591   | 0.095591   | 0.095591   |   0.0 |  0.90
Output  | 0.43811    | 0.43811    | 0.43811    |   0.0 |  4.15
Modify  | 0.22609    | 0.22609    | 0.22609    |   0.0 |  2.14
Other   |            | 0.0269     |            |       |  0.25

Nlocal:    512 ave 512 max 512 min
Histogram: 1 0 0 0 0 0 0 0 0 0
Nghost:    2075 ave 2075 max 2075 min
Histogram: 1 0 0 0 0 0 0 0 0 0
Neighs:    21827 ave 21827 max 21827 min
Histogram: 1 0 0 0 0 0 0 0 0 0

Total # of neighbors = 21827
Ave neighs/atom = 42.6309
Neighbor list builds = 999
Dangerous builds = 998
info system
delete_atoms group all
Deleted 512 atoms, new total = 0
info system
log log.Conc2
