read_data data.conc1 add append group conc1Atoms
  triclinic box = (0 0 0) to (29.04 14.52 14.52) with tilt (0 0 0)
  1 by 1 by 1 MPI processor grid
  reading atoms ...
  256 atoms
  read_data CPU = 0.000211691 secs
read_data data.conc2 add append shift 14.52 0 0 group conc2Atoms
  triclinic box = (0 0 0) to (29.04 14.52 14.52) with tilt (0 0 0)
  1 by 1 by 1 MPI processor grid
  reading atoms ...
  256 atoms
  read_data CPU = 0.000174129 secs
reset_timestep 0
timestep 0.001
thermo 100
thermo_style custom step atoms temp vol press pe etotal
dump 3 all custom 10 mixed.XYZ id type x y z
info groups
fix 0 all nve
fix 1 all langevin 400 400 0.1 761 zero yes
run 10000
Per MPI rank memory allocation (min/avg/max) = 7.219 | 7.219 | 7.219 Mbytes
Step Atoms Temp Volume Press PotEng TotEng 
       0      512            0    6122.5148   -70353.978   -2048.1464   -2048.1464 
     100      512    241.33351    6122.5148   -51648.298   -2032.6811   -2016.7405 
     200      512    360.68067    6122.5148   -43962.321   -2026.9362   -2003.1126 
     300      512    380.70628    6122.5148   -40127.983    -2024.064   -1998.9177 
     400      512    407.31843    6122.5148   -39412.357   -2024.2739   -1997.3697 
     500      512    375.59881    6122.5148   -40511.305      -2024.5   -1999.6909 
     600      512    394.58677    6122.5148   -41410.349   -2026.0471   -1999.9839 
     700      512    387.26507    6122.5148   -41307.394   -2025.2005   -1999.6209 
     800      512    386.84749    6122.5148   -40853.073   -2024.7484   -1999.1964 
     900      512    411.94504    6122.5148   -40240.483   -2024.6264   -1997.4167 
    1000      512    403.92486    6122.5148   -39495.009    -2023.961    -1997.281 
    1100      512    424.20285    6122.5148   -39522.014   -2024.3628   -1996.3434 
    1200      512    406.60534    6122.5148    -41314.16   -2025.8074   -1998.9503 
    1300      512    378.55615    6122.5148   -40155.627   -2023.8449   -1998.8406 
    1400      512    387.82829    6122.5148   -40234.548   -2023.5284   -1997.9116 
    1500      512    402.08169    6122.5148   -40241.315   -2024.5122   -1997.9539 
    1600      512    413.86561    6122.5148    -39059.73   -2023.4147    -1996.078 
    1700      512    410.07276    6122.5148   -40801.465   -2024.8275   -1997.7414 
    1800      512    391.76987    6122.5148   -40971.976   -2024.4528   -1998.5756 
    1900      512    384.99804    6122.5148   -41466.597   -2024.9201   -1999.4902 
    2000      512    395.12771    6122.5148   -40558.991   -2024.5073   -1998.4084 
    2100      512    407.77125    6122.5148   -40654.641   -2024.6838   -1997.7497 
    2200      512    399.33834    6122.5148   -40934.154   -2025.3142   -1998.9371 
    2300      512    419.70622    6122.5148   -38330.382   -2022.2534    -1994.531 
    2400      512    406.22919    6122.5148   -40708.991    -2024.027   -1997.1948 
    2500      512    416.41868    6122.5148   -40437.107    -2023.937   -1996.4317 
    2600      512    389.20892    6122.5148   -37925.533   -2022.2065   -1996.4984 
    2700      512    424.11779    6122.5148   -38984.309   -2024.2248    -1996.211 
    2800      512    438.33931    6122.5148   -37548.957   -2022.5906   -1993.6374 
    2900      512    404.10812    6122.5148   -39827.784   -2024.5787   -1997.8866 
    3000      512    429.90455    6122.5148   -40073.219   -2024.7853   -1996.3893 
    3100      512    404.80647    6122.5148   -37741.254   -2021.7859   -1995.0476 
    3200      512     410.7032    6122.5148   -38399.661   -2022.4179   -1995.2901 
    3300      512    417.68668    6122.5148   -38697.241   -2023.0968   -1995.5078 
    3400      512    404.56275    6122.5148   -39726.215   -2023.8702   -1997.1481 
    3500      512    396.91784    6122.5148    -39607.43   -2024.3521   -1998.1349 
    3600      512    400.54518    6122.5148   -39790.963   -2024.8748    -1998.418 
    3700      512     410.3204    6122.5148   -41278.466   -2026.5239   -1999.4215 
    3800      512    413.73649    6122.5148   -40039.771   -2024.7222   -1997.3941 
    3900      512    395.42104    6122.5148   -39842.371   -2023.9217   -1997.8034 
    4000      512    370.52242    6122.5148   -39949.414    -2023.568   -1999.0943 
    4100      512    355.37304    6122.5148   -40894.562   -2024.0344   -2000.5613 
    4200      512    386.62335    6122.5148   -40689.313    -2024.325   -1998.7878 
    4300      512    405.93234    6122.5148   -38963.486   -2023.5521   -1996.7395 
    4400      512    404.69121    6122.5148   -39493.437   -2024.1028   -1997.3722 
    4500      512    429.92357    6122.5148   -39520.518    -2024.035   -1995.6377 
    4600      512    380.96444    6122.5148   -39060.289   -2023.1498   -1997.9864 
    4700      512    376.04389    6122.5148    -40514.54   -2024.8227   -1999.9843 
    4800      512    386.40956    6122.5148   -41133.402   -2024.9307   -1999.4076 
    4900      512    386.67498    6122.5148   -41328.097   -2024.9469   -1999.4062 
    5000      512     384.7182    6122.5148   -40925.713   -2024.2511   -1998.8397 
    5100      512    392.56294    6122.5148   -40716.862   -2023.8377   -1997.9082 
    5200      512    381.56467    6122.5148   -39010.325   -2022.3609   -1997.1579 
    5300      512    414.51752    6122.5148   -38527.675   -2022.6493   -1995.2696 
    5400      512    414.30044    6122.5148   -41234.815   -2025.6288   -1998.2635 
    5500      512    380.21941    6122.5148   -40586.964   -2024.3035   -1999.1893 
    5600      512    418.24256    6122.5148   -41465.293   -2025.7537    -1998.128 
    5700      512    391.74883    6122.5148   -38155.053   -2022.3094   -1996.4336 
    5800      512    382.04057    6122.5148     -40884.1   -2024.5528   -1999.3183 
    5900      512    396.11574    6122.5148   -40290.883   -2023.9751   -1997.8109 
    6000      512    384.66418    6122.5148   -41168.742   -2024.4434   -1999.0356 
    6100      512    384.50253    6122.5148   -40146.541   -2023.8126   -1998.4155 
    6200      512     414.9276    6122.5148   -38921.959   -2023.2828    -1995.876 
    6300      512    377.07081    6122.5148   -39651.748   -2023.8616   -1998.9554 
    6400      512    404.06316    6122.5148   -39734.199   -2024.2041    -1997.515 
    6500      512    431.75363    6122.5148   -38011.329   -2023.0443   -1994.5262 
    6600      512    411.29983    6122.5148   -40092.935   -2024.3374   -1997.1703 
    6700      512    435.97049    6122.5148   -39763.142   -2024.1364   -1995.3397 
    6800      512    403.78452    6122.5148   -39512.762   -2023.9677   -1997.2969 
    6900      512    383.60863    6122.5148   -39172.536   -2022.9649   -1997.6268 
    7000      512    413.93669    6122.5148   -40161.455   -2024.6236   -1997.2823 
    7100      512    386.65162    6122.5148   -40528.821   -2024.6466   -1999.1076 
    7200      512    385.72811    6122.5148   -39851.056   -2023.4167   -1997.9386 
    7300      512    387.45438    6122.5148   -41177.986    -2025.263   -1999.6709 
    7400      512    395.30558    6122.5148   -39594.237    -2023.694   -1997.5833 
    7500      512    414.91595    6122.5148   -38803.305   -2022.8014   -1995.3954 
    7600      512    392.82796    6122.5148    -39409.07   -2023.1585   -1997.2114 
    7700      512    426.64997    6122.5148    -39261.51   -2023.2972   -1995.1162 
    7800      512     424.4318    6122.5148   -40132.755   -2024.2967   -1996.2621 
    7900      512    405.91625    6122.5148    -39239.72   -2022.9741   -1996.1626 
    8000      512    387.34839    6122.5148    -39788.43   -2023.8813   -1998.2962 
    8100      512    402.54263    6122.5148   -39787.612   -2024.0757    -1997.487 
    8200      512    377.16218    6122.5148   -40027.827   -2023.3891   -1998.4768 
    8300      512     381.8112    6122.5148   -42267.184   -2025.9096   -2000.6902 
    8400      512    401.88134    6122.5148   -40464.906   -2024.2601   -1997.7151 
    8500      512    396.41945    6122.5148   -39560.993   -2024.0388   -1997.8545 
    8600      512    397.54919    6122.5148   -39984.084    -2024.673   -1998.4141 
    8700      512    387.72622    6122.5148   -41170.709    -2025.559   -1999.9489 
    8800      512    388.72081    6122.5148   -40219.994   -2024.6082   -1998.9324 
    8900      512    379.80113    6122.5148   -40624.536   -2024.4585   -1999.3719 
    9000      512     391.9814    6122.5148    -41303.68   -2025.4538   -1999.5626 
    9100      512    406.40345    6122.5148   -40435.564   -2024.1456   -1997.3019 
    9200      512    412.77051    6122.5148   -39758.459   -2024.5079   -1997.2436 
    9300      512    399.80817    6122.5148   -42060.041   -2025.7257   -1999.3176 
    9400      512    413.38575    6122.5148   -39989.352   -2024.0816   -1996.7766 
    9500      512    406.51202    6122.5148   -41441.764   -2025.4664   -1998.6155 
    9600      512    390.48026    6122.5148   -39224.084   -2023.3989   -1997.6069 
    9700      512    402.81957    6122.5148   -39549.377   -2023.7721   -1997.1651 
    9800      512    385.01697    6122.5148    -39407.09   -2023.2033   -1997.7722 
    9900      512    397.06629    6122.5148   -40075.171   -2024.8808   -1998.6538 
   10000      512     413.8332    6122.5148   -39259.814   -2024.1456   -1996.8111 
Loop time of 11.5511 on 1 procs for 10000 steps with 512 atoms

Performance: 74.798 ns/day, 0.321 hours/ns, 865.721 timesteps/s
99.7% CPU use with 1 MPI tasks x no OpenMP threads

MPI task timing breakdown:
Section |  min time  |  avg time  |  max time  |%varavg| %total
---------------------------------------------------------------
Pair    | 8.823      | 8.823      | 8.823      |   0.0 | 76.38
Neigh   | 0.98869    | 0.98869    | 0.98869    |   0.0 |  8.56
Comm    | 0.096177   | 0.096177   | 0.096177   |   0.0 |  0.83
Output  | 1.3878     | 1.3878     | 1.3878     |   0.0 | 12.01
Modify  | 0.22627    | 0.22627    | 0.22627    |   0.0 |  1.96
Other   |            | 0.02905    |            |       |  0.25

Nlocal:    512 ave 512 max 512 min
Histogram: 1 0 0 0 0 0 0 0 0 0
Nghost:    2075 ave 2075 max 2075 min
Histogram: 1 0 0 0 0 0 0 0 0 0
Neighs:    21811 ave 21811 max 21811 min
Histogram: 1 0 0 0 0 0 0 0 0 0

Total # of neighbors = 21811
Ave neighs/atom = 42.5996
Neighbor list builds = 999
Dangerous builds = 998
info system
Total wall time: 0:00:36
