read_data data.conc2 add append
  triclinic box = (0 0 0) to (29.04 14.52 14.52) with tilt (0 0 0)
  1 by 1 by 1 MPI processor grid
  reading atoms ...
  256 atoms
  read_data CPU = 0.000221156 secs
read_data data.conc2 add append shift 14.52 0 0 group conc2Atoms
  triclinic box = (0 0 0) to (29.04 14.52 14.52) with tilt (0 0 0)
  1 by 1 by 1 MPI processor grid
  reading atoms ...
  256 atoms
  read_data CPU = 0.000170491 secs
reset_timestep 0
timestep 0.001
thermo 100
thermo_style custom step atoms temp vol press pe etotal
dump 2 all custom 10 conc2.XYZ id type x y z
info groups
fix 0 all nve
fix 1 all langevin 400 400 0.1 761 zero yes
run 10000
Per MPI rank memory allocation (min/avg/max) = 5.95 | 5.95 | 5.95 Mbytes
Step Atoms Temp Volume Press PotEng TotEng 
       0      512            0    6122.5148   -122728.39   -2215.5528   -2215.5528 
     100      512    238.03237    6122.5148   -101425.39   -2199.1996   -2183.4771 
     200      512    360.22598    6122.5148   -94148.379   -2192.9845   -2169.1909 
     300      512    381.66672    6122.5148   -90558.608   -2189.7784   -2164.5686 
     400      512    407.70985    6122.5148   -89902.487   -2189.6635   -2162.7335 
     500      512    375.21671    6122.5148   -90403.715   -2190.0683   -2165.2845 
     600      512    402.36791    6122.5148   -92184.523   -2191.8333   -2165.2561 
     700      512    392.35345    6122.5148   -91362.753    -2191.012   -2165.0963 
     800      512    383.24748    6122.5148   -91748.319   -2190.9548   -2165.6405 
     900      512    408.89798    6122.5148   -91687.192   -2190.8741   -2163.8656 
    1000      512    405.97841    6122.5148   -90080.307   -2189.9384   -2163.1227 
    1100      512    430.25516    6122.5148   -90105.697   -2189.7979   -2161.3787 
    1200      512    408.80732    6122.5148   -91191.257   -2190.7266   -2163.7241 
    1300      512    383.68406    6122.5148   -90486.272   -2189.5852   -2164.2422 
    1400      512     391.5878    6122.5148   -90035.538   -2189.2343   -2163.3692 
    1500      512    408.86727    6122.5148   -90974.237   -2190.3059   -2163.2994 
    1600      512    416.94767    6122.5148   -88736.488   -2188.9549   -2161.4147 
    1700      512     411.6142    6122.5148   -89952.766   -2189.6356   -2162.4477 
    1800      512    397.15236    6122.5148    -90290.96   -2189.9411   -2163.7084 
    1900      512    389.48347    6122.5148   -91158.332    -2190.242   -2164.5158 
    2000      512     403.9536    6122.5148   -90743.508   -2190.7129    -2164.031 
    2100      512    413.63681    6122.5148   -90906.061     -2190.48   -2163.1585 
    2200      512    390.59181    6122.5148   -91290.733   -2190.5529   -2164.7535 
    2300      512    421.78074    6122.5148    -88948.43   -2188.5128   -2160.6534 
    2400      512    402.82143    6122.5148   -89621.172   -2189.5562   -2162.9491 
    2500      512    416.12009    6122.5148   -89431.837   -2188.9826    -2161.497 
    2600      512    400.11145    6122.5148   -88337.197   -2188.1638   -2161.7357 
    2700      512    418.67454    6122.5148   -89716.808   -2189.3359   -2161.6817 
    2800      512    442.63254    6122.5148   -88227.824   -2187.9957   -2158.7589 
    2900      512    408.66892    6122.5148   -90222.954    -2189.842   -2162.8486 
    3000      512    429.87263    6122.5148    -90787.95   -2190.6017   -2162.2078 
    3100      512    412.96442    6122.5148   -88069.319   -2187.5357   -2160.2586 
    3200      512    403.55747    6122.5148   -88083.035   -2187.9185   -2161.2628 
    3300      512    419.16464    6122.5148   -89545.766   -2189.1805   -2161.4939 
    3400      512    391.03848    6122.5148   -90030.038   -2189.4281   -2163.5993 
    3500      512    401.24058    6122.5148   -90628.061   -2190.2858   -2163.7831 
    3600      512    398.36794    6122.5148   -90814.896   -2190.3624   -2164.0494 
    3700      512     406.5004    6122.5148   -92556.531   -2192.2382   -2165.3881 
    3800      512    412.92159    6122.5148   -91027.716    -2190.458   -2163.1837 
    3900      512    396.82099    6122.5148   -90214.089   -2189.8529   -2163.6421 
    4000      512    370.77072    6122.5148   -90104.055    -2188.998   -2164.5079 
    4100      512     357.3834    6122.5148   -90050.827   -2189.1445   -2165.5387 
    4200      512    386.13876    6122.5148   -90986.286   -2189.8116   -2164.3064 
    4300      512    411.16088    6122.5148   -89642.117    -2189.179    -2162.021 
    4400      512    408.77576    6122.5148   -90564.309   -2189.9855   -2162.9851 
    4500      512     427.1558    6122.5148    -89758.35   -2189.3331   -2161.1186 
    4600      512    390.96773    6122.5148   -89477.275   -2188.9398   -2163.1156 
    4700      512    378.39188    6122.5148   -90634.192    -2190.078   -2165.0845 
    4800      512     386.3093    6122.5148   -92039.291    -2191.034   -2165.5175 
    4900      512    401.71879    6122.5148   -92171.517   -2191.6923    -2165.158 
    5000      512    384.16099    6122.5148   -90589.145   -2190.0422   -2164.6676 
    5100      512    390.68289    6122.5148   -89894.296   -2189.5928   -2163.7875 
    5200      512    381.58164    6122.5148   -89017.025   -2188.0072    -2162.803 
    5300      512    411.43546    6122.5148   -88979.233   -2188.7034   -2161.5272 
    5400      512      405.372    6122.5148   -91241.801   -2190.9562   -2164.1806 
    5500      512    376.64563    6122.5148   -91371.771   -2190.6427   -2165.7645 
    5600      512    408.41224    6122.5148   -91440.039     -2191.13   -2164.1536 
    5700      512    391.14393    6122.5148   -88775.746   -2188.2165   -2162.3807 
    5800      512    377.38825    6122.5148   -90881.531   -2190.1163   -2165.1891 
    5900      512    394.13915    6122.5148   -90227.432   -2189.6685   -2163.6349 
    6000      512    383.77739    6122.5148   -91257.718   -2190.7221   -2165.3728 
    6100      512    385.98065    6122.5148   -89746.045   -2189.4005   -2163.9058 
    6200      512    411.93964    6122.5148   -89817.604   -2189.3983   -2162.1889 
    6300      512    371.03037    6122.5148   -90049.709   -2189.3691   -2164.8618 
    6400      512    397.52207    6122.5148   -90200.404   -2189.6896   -2163.4325 
    6500      512    422.42289    6122.5148   -90268.387   -2189.8854   -2161.9836 
    6600      512    402.37849    6122.5148   -90640.273   -2190.3583   -2163.7804 
    6700      512     429.6153    6122.5148   -90416.519   -2190.0255   -2161.6486 
    6800      512    395.94613    6122.5148   -89732.877   -2189.4943   -2163.3413 
    6900      512    385.70089    6122.5148   -88722.339   -2188.4303    -2162.954 
    7000      512    408.57706    6122.5148   -90645.047   -2190.3697   -2163.3824 
    7100      512    387.21993    6122.5148   -91008.223   -2190.7194   -2165.1428 
    7200      512    388.73171    6122.5148    -90148.43   -2189.2121   -2163.5357 
    7300      512    388.86127    6122.5148   -90969.256   -2190.9753   -2165.2902 
    7400      512    391.79654    6122.5148   -90210.975   -2189.6429    -2163.764 
    7500      512    413.11509    6122.5148   -88907.494   -2188.9647   -2161.6776 
    7600      512    391.76281    6122.5148   -88863.669   -2188.6445   -2162.7678 
    7700      512    422.90247    6122.5148   -89247.272   -2189.1181   -2161.1846 
    7800      512    409.62458    6122.5148   -89261.123   -2189.1586   -2162.1022 
    7900      512    405.60053    6122.5148   -89687.924   -2189.1362   -2162.3455 
    8000      512     389.1667    6122.5148   -90186.692   -2189.9405   -2164.2353 
    8100      512    400.43856    6122.5148   -89791.742   -2189.6997     -2163.25 
    8200      512     369.4498    6122.5148   -90723.246   -2189.2476   -2164.8447 
    8300      512    376.94174    6122.5148   -92239.931   -2191.8201   -2166.9223 
    8400      512    406.04463    6122.5148   -90289.973   -2190.0221   -2163.2021 
    8500      512    393.15033    6122.5148   -90457.689   -2190.0336   -2164.0653 
    8600      512    393.17302    6122.5148    -90767.74   -2190.2218    -2164.252 
    8700      512    390.50875    6122.5148   -91723.541   -2191.2705   -2165.4766 
    8800      512    385.68332    6122.5148   -90740.576   -2189.9875   -2164.5124 
    8900      512    380.48708    6122.5148   -90940.293    -2189.878   -2164.7461 
    9000      512    406.60276    6122.5148   -92307.541    -2191.765   -2164.9081 
    9100      512    408.74038    6122.5148   -90597.812    -2190.135   -2163.1369 
    9200      512    415.66863    6122.5148   -90803.385   -2190.4453   -2162.9896 
    9300      512    396.33898    6122.5148   -91709.914   -2191.5201   -2165.3411 
    9400      512    414.97045    6122.5148    -90261.89   -2190.2921   -2162.8825 
    9500      512    400.58654    6122.5148   -90713.552   -2190.3431   -2163.8835 
    9600      512    392.60345    6122.5148    -89002.04   -2188.4793   -2162.5471 
    9700      512    394.58006    6122.5148   -89514.889   -2189.4254   -2163.3626 
    9800      512     380.4138    6122.5148   -89613.213   -2188.9332   -2163.8061 
    9900      512     404.7104    6122.5148   -91894.478   -2191.5166   -2164.7847 
   10000      512    416.95676    6122.5148   -90795.472   -2190.0912   -2162.5504 
Loop time of 10.9734 on 1 procs for 10000 steps with 512 atoms

Performance: 78.736 ns/day, 0.305 hours/ns, 911.295 timesteps/s
99.7% CPU use with 1 MPI tasks x no OpenMP threads

MPI task timing breakdown:
Section |  min time  |  avg time  |  max time  |%varavg| %total
---------------------------------------------------------------
Pair    | 8.7151     | 8.7151     | 8.7151     |   0.0 | 79.42
Neigh   | 0.98593    | 0.98593    | 0.98593    |   0.0 |  8.98
Comm    | 0.097701   | 0.097701   | 0.097701   |   0.0 |  0.89
Output  | 0.91549    | 0.91549    | 0.91549    |   0.0 |  8.34
Modify  | 0.23007    | 0.23007    | 0.23007    |   0.0 |  2.10
Other   |            | 0.0291     |            |       |  0.27

Nlocal:    512 ave 512 max 512 min
Histogram: 1 0 0 0 0 0 0 0 0 0
Nghost:    2075 ave 2075 max 2075 min
Histogram: 1 0 0 0 0 0 0 0 0 0
Neighs:    21795 ave 21795 max 21795 min
Histogram: 1 0 0 0 0 0 0 0 0 0

Total # of neighbors = 21795
Ave neighs/atom = 42.5684
Neighbor list builds = 999
Dangerous builds = 998
info system
delete_atoms group all
Deleted 512 atoms, new total = 0
info system
log log.mixedConc
