read_data data.conc1 add append group conc1Atoms
  triclinic box = (0 0 0) to (29.04 14.52 14.52) with tilt (0 0 0)
  1 by 1 by 1 MPI processor grid
  reading atoms ...
  256 atoms
  read_data CPU = 0.000218253 secs
read_data data.conc2 add append shift 14.52 0 0 group conc2Atoms
  triclinic box = (0 0 0) to (29.04 14.52 14.52) with tilt (0 0 0)
  1 by 1 by 1 MPI processor grid
  reading atoms ...
  256 atoms
  read_data CPU = 0.000177723 secs
reset_timestep 0
timestep 0.001
thermo 100
thermo_style custom step atoms temp vol press pe etotal
dump 3 all custom 10 mixed.XYZ id type x y z
info groups
fix 0 all nve
fix 1 all langevin 400 400 0.1 761 zero yes
run 10000
Per MPI rank memory allocation (min/avg/max) = 7.219 | 7.219 | 7.219 Mbytes
Step Atoms Temp Volume Press PotEng TotEng 
       0      512            0    6122.5148   -70670.607   -2048.3588   -2048.3588 
     100      512     243.7946    6122.5148   -51882.419    -2033.054   -2016.9509 
     200      512    365.00173    6122.5148   -44194.559   -2027.3633   -2003.2542 
     300      512    379.13525    6122.5148   -40669.482   -2024.1203   -1999.0776 
     400      512    406.52915    6122.5148   -40076.577   -2024.4217   -1997.5696 
     500      512    374.61548    6122.5148   -40951.022   -2025.1678   -2000.4237 
     600      512    396.57322    6122.5148   -42255.791   -2026.4071   -2000.2127 
     700      512    392.06264    6122.5148   -41570.739   -2025.4594   -1999.5629 
     800      512    385.49493    6122.5148   -41475.901   -2025.2118   -1999.7491 
     900      512     410.7401    6122.5148   -41216.616   -2025.1855   -1998.0553 
    1000      512    407.84282    6122.5148   -40038.323   -2024.2429   -1997.3041 
    1100      512    428.68052    6122.5148   -39580.692   -2024.1152   -1995.8001 
    1200      512    405.33929    6122.5148   -41410.058   -2025.6082   -1998.8347 
    1300      512    375.26873    6122.5148    -40628.91   -2023.8565   -1999.0693 
    1400      512    392.93825    6122.5148   -40411.796   -2024.2125   -1998.2582 
    1500      512    404.49294    6122.5148   -41196.359   -2025.0411   -1998.3236 
    1600      512    411.06557    6122.5148   -39008.832   -2023.3602   -1996.2086 
    1700      512    409.96098    6122.5148     -40662.3   -2024.8505   -1997.7718 
    1800      512    400.21267    6122.5148   -41354.329   -2025.0438    -1998.609 
    1900      512    385.44519    6122.5148   -41980.437   -2025.0185   -1999.5591 
    2000      512    395.70726    6122.5148   -40885.467   -2024.8053   -1998.6681 
    2100      512     409.1929    6122.5148   -40996.233   -2025.2744   -1998.2464 
    2200      512    399.51578    6122.5148   -41880.373   -2026.0214   -1999.6326 
    2300      512    418.00437    6122.5148   -39140.528   -2022.7933   -1995.1833 
    2400      512    402.16763    6122.5148   -40883.385   -2024.1041   -1997.5402 
    2500      512    413.06926    6122.5148   -40431.216   -2024.2336   -1996.9495 
    2600      512    387.73021    6122.5148   -38195.004   -2022.3162   -1996.7059 
    2700      512    429.69544    6122.5148   -39912.045   -2024.5492    -1996.167 
    2800      512    436.79874    6122.5148   -38327.874   -2022.9941   -1994.1427 
    2900      512    409.31905    6122.5148   -40145.299   -2024.7264   -1997.6901 
    3000      512    437.31853    6122.5148   -41054.218   -2025.4806   -1996.5949 
    3100      512    405.64459    6122.5148   -38614.573   -2022.1115   -1995.3178 
    3200      512    407.54016    6122.5148    -38907.37   -2022.7265   -1995.8077 
    3300      512    424.94727    6122.5148   -39109.731   -2023.3995   -1995.3309 
    3400      512    403.11266    6122.5148   -39730.806   -2024.0286   -1997.4022 
    3500      512    397.46747    6122.5148   -40051.899   -2024.6017   -1998.3483 
    3600      512    397.40865    6122.5148   -40079.663    -2025.041   -1998.7914 
    3700      512     406.2146    6122.5148   -42151.824   -2026.8596   -2000.0283 
    3800      512    414.41948    6122.5148    -40803.64   -2025.0399   -1997.6667 
    3900      512     396.0552    6122.5148   -40486.622   -2024.2113    -1998.051 
    4000      512    368.42441    6122.5148   -40100.085   -2024.0241    -1999.689 
    4100      512    357.95031    6122.5148   -41226.747   -2024.4631   -2000.8198 
    4200      512    389.59753    6122.5148   -41064.425     -2024.69   -1998.9563 
    4300      512    400.23456    6122.5148   -39474.978   -2023.4738   -1997.0376 
    4400      512    412.99166    6122.5148   -40285.875   -2024.6099    -1997.331 
    4500      512    428.32483    6122.5148   -39538.143   -2023.9189   -1995.6273 
    4600      512    390.03838    6122.5148   -39493.095   -2023.8169   -1998.0541 
    4700      512    377.21714    6122.5148   -40475.974   -2024.8662   -1999.9503 
    4800      512    387.35014    6122.5148   -42210.359    -2025.574   -1999.9887 
    4900      512    385.38687    6122.5148   -41909.574   -2025.5819   -2000.1263 
    5000      512    383.02371    6122.5148   -41464.727   -2024.7598   -1999.4603 
    5100      512    391.08868    6122.5148    -41106.56   -2024.1315   -1998.2994 
    5200      512    381.99322    6122.5148   -39701.414    -2023.086   -1997.8546 
    5300      512    413.21648    6122.5148    -39236.54   -2023.4224   -1996.1287 
    5400      512    406.45733    6122.5148   -41339.839   -2025.4905   -1998.6432 
    5500      512     378.2802    6122.5148   -41135.365   -2024.6171   -1999.6309 
    5600      512    412.64635    6122.5148   -42000.122   -2026.0177   -1998.7616 
    5700      512    390.53455    6122.5148   -38700.432   -2022.6629   -1996.8674 
    5800      512    378.78164    6122.5148   -40991.456   -2024.5631   -1999.5438 
    5900      512    396.66077    6122.5148   -40731.813   -2024.2516   -1998.0513 
    6000      512    385.37749    6122.5148   -41411.328   -2024.6719   -1999.2169 
    6100      512     389.9205    6122.5148   -40794.915   -2024.3311   -1998.5761 
    6200      512     413.2208    6122.5148   -39592.126   -2023.4903   -1996.1962 
    6300      512    373.46511    6122.5148   -40110.312   -2024.0641    -1999.396 
    6400      512    407.06373    6122.5148    -40354.46   -2024.6952   -1997.8078 
    6500      512    424.76161    6122.5148   -38962.495   -2023.6415   -1995.5852 
    6600      512    403.66658    6122.5148   -40515.466   -2024.7662   -1998.1033 
    6700      512    432.89772    6122.5148     -40312.6   -2024.6759   -1996.0822 
    6800      512    401.59121    6122.5148   -39920.299   -2024.1352   -1997.6093 
    6900      512    379.24101    6122.5148   -39068.308   -2022.8647   -1997.8151 
    7000      512    412.64871    6122.5148   -40754.894   -2024.8653    -1997.609 
    7100      512     386.8394    6122.5148   -41092.946   -2025.0956   -1999.5442 
    7200      512    382.87381    6122.5148    -40192.83   -2023.7491   -1998.4595 
    7300      512    388.67138    6122.5148   -41271.127   -2025.3709   -1999.6984 
    7400      512    396.03892    6122.5148   -40004.265   -2024.1223   -1997.9632 
    7500      512    412.74577    6122.5148   -39629.394   -2023.2916   -1996.0289 
    7600      512     391.7965    6122.5148   -39918.191    -2023.416   -1997.5371 
    7700      512    418.87524    6122.5148   -39672.124   -2023.4699   -1995.8024 
    7800      512    420.85412    6122.5148   -40640.998   -2024.5206   -1996.7224 
    7900      512    407.55462    6122.5148   -39889.948   -2023.7593   -1996.8395 
    8000      512    390.30967    6122.5148   -41025.264   -2024.7416   -1998.9609 
    8100      512    393.74732    6122.5148   -40070.629    -2024.242   -1998.2342 
    8200      512    368.52192    6122.5148   -40604.512   -2023.7881   -1999.4465 
    8300      512    379.42842    6122.5148   -43140.397   -2026.3685   -2001.3065 
    8400      512    400.53516    6122.5148   -41076.559   -2024.8966   -1998.4405 
    8500      512    392.83356    6122.5148   -39979.562   -2024.4171   -1998.4697 
    8600      512     394.9923    6122.5148    -40924.45   -2025.1275   -1999.0375 
    8700      512    385.70981    6122.5148   -41458.833   -2025.7175   -2000.2407 
    8800      512    388.07807    6122.5148    -41115.47   -2025.1441   -1999.5108 
    8900      512    379.51865    6122.5148   -40853.619   -2024.8577   -1999.7898 
    9000      512     392.4325    6122.5148   -42235.006   -2026.0221   -2000.1012 
    9100      512     399.9789    6122.5148   -40274.161   -2024.2218   -1997.8025 
    9200      512      413.334    6122.5148   -40395.854   -2024.6434   -1997.3419 
    9300      512    399.63063    6122.5148   -42214.761   -2025.8932   -1999.4969 
    9400      512     411.0248    6122.5148   -40534.827   -2024.2044   -1997.0554 
    9500      512    405.99482    6122.5148   -41556.683   -2025.5693   -1998.7525 
    9600      512    390.64422    6122.5148   -39694.101   -2023.6758   -1997.8729 
    9700      512    399.64642    6122.5148   -40282.001   -2024.1989   -1997.8015 
    9800      512    387.96968    6122.5148   -40431.967   -2023.8865   -1998.2604 
    9900      512    399.32492    6122.5148    -41073.99   -2025.7665   -1999.3904 
   10000      512     410.9604    6122.5148   -39691.762   -2024.3105   -1997.1658 
Loop time of 11.6358 on 1 procs for 10000 steps with 512 atoms

Performance: 74.254 ns/day, 0.323 hours/ns, 859.418 timesteps/s
99.7% CPU use with 1 MPI tasks x no OpenMP threads

MPI task timing breakdown:
Section |  min time  |  avg time  |  max time  |%varavg| %total
---------------------------------------------------------------
Pair    | 8.9        | 8.9        | 8.9        |   0.0 | 76.49
Neigh   | 0.99235    | 0.99235    | 0.99235    |   0.0 |  8.53
Comm    | 0.097476   | 0.097476   | 0.097476   |   0.0 |  0.84
Output  | 1.3841     | 1.3841     | 1.3841     |   0.0 | 11.90
Modify  | 0.23204    | 0.23204    | 0.23204    |   0.0 |  1.99
Other   |            | 0.02982    |            |       |  0.26

Nlocal:    512 ave 512 max 512 min
Histogram: 1 0 0 0 0 0 0 0 0 0
Nghost:    2075 ave 2075 max 2075 min
Histogram: 1 0 0 0 0 0 0 0 0 0
Neighs:    21819 ave 21819 max 21819 min
Histogram: 1 0 0 0 0 0 0 0 0 0

Total # of neighbors = 21819
Ave neighs/atom = 42.6152
Neighbor list builds = 999
Dangerous builds = 998
info system
Total wall time: 0:00:33
