
units metal
dimension 3
boundary p p p
atom_style atomic
#atom_modify map array

#----------------- CREATE ATOMS ------------------------
#region simR block 0 8.092 0 4.046 0 4.046 #use change_box to reshape sim box
#region solidBase block 0 4.046 0 4.046 0 4.046 #create_box reshapes sim box to fit new atoms
#create_box 2 solidBase
read_data data.conc1 group conc1Atoms
  triclinic box = (0 0 0) to (21.78 21.78 21.78) with tilt (0 0 0)
  1 by 1 by 1 MPI processor grid
  reading atoms ...
  864 atoms
  read_data CPU = 0.00083045 secs
#read_data data.conc3 add append group conc3Atoms
#read_data atom.data add append
#group baseAtoms region solidBase


# --------- DEFINE INTERATOMIC POTENTIAL ---------

pair_style eam/alloy
pair_coeff * * CuNi.eam.alloy Ni Cu
Reading potential file CuNi.eam.alloy with DATE: 2014-07-11
neighbor .05 bin
neigh_modify delay 10 check yes

# -------------- DEFFINE SETTINGS ----------------

#COMPUTES (do in Pylammps)

#---------------------- RUN ------------------------

#MINIMIZATION/RUN (do in pylammps)

info system
read_data data.conc9 add append shift 21.78 0 0 group conc9Atoms
  triclinic box = (0 0 0) to (43.56 21.78 21.78) with tilt (0 0 0)
  1 by 1 by 1 MPI processor grid
  reading atoms ...
  864 atoms
  read_data CPU = 0.000675376 secs
reset_timestep 0
timestep 0.001
thermo 100
thermo_style custom step atoms temp press etotal
dump 2 all custom 10 pos.XYZ id type x y z
info groups
fix 0 all nve
fix 1 all langevin 500 500 0.1 761 zero yes
run 10000
Neighbor list info ...
  update every 1 steps, delay 10 steps, check yes
  max neighbors/atom: 2000, page size: 100000
  master list distance cutoff = 6.44433
  ghost atom cutoff = 6.44433
  binsize = 3.22217, bins = 14 7 7
  1 neighbor lists, perpetual/occasional/extra = 1 0 0
  (1) pair eam/alloy, perpetual
      attributes: half, newton on
      pair build: half/bin/newton/tri
      stencil: half/bin/3d/newton/tri
      bin: standard
Per MPI rank memory allocation (min/avg/max) = 4.823 | 4.823 | 4.823 Mbytes
Step Atoms Temp Press TotEng 
       0     1728            0   -66205.859   -6827.1083 
     100     1728    311.81813   -43785.781   -6693.1413 
     200     1728    421.48826   -34828.077   -6644.6685 
     300     1728    467.78343   -30778.647    -6623.953 
     400     1728    495.58678    -29460.02   -6615.1209 
     500     1728    487.87646   -28954.809   -6616.9835 
     600     1728    501.79398   -28687.264   -6613.5334 
     700     1728    499.20511   -27655.108   -6610.5755 
     800     1728    527.13404    -26658.55   -6601.9041 
     900     1728    510.97288   -26253.542   -6603.9816 
    1000     1728    503.24034   -28611.223   -6613.3194 
    1100     1728    492.65489   -28182.914   -6613.2183 
    1200     1728      514.289   -28328.076   -6609.6949 
    1300     1728    515.09404   -27928.317   -6608.8817 
    1400     1728    519.57708   -27142.464   -6605.1007 
    1500     1728    514.78018   -28095.413   -6611.3381 
    1600     1728    504.92896   -27736.396   -6611.1669 
    1700     1728    518.69154   -27700.461   -6607.9773 
    1800     1728    504.37911   -27743.852   -6609.1861 
    1900     1728    495.51702   -28529.832   -6614.3077 
    2000     1728    481.86251    -26446.07   -6611.6541 
    2100     1728     504.8851   -26489.441    -6606.661 
    2200     1728     513.3532   -27990.828   -6611.1047 
    2300     1728    504.41292   -27055.653   -6608.8828 
    2400     1728    496.28494    -27362.92   -6610.8038 
    2500     1728    499.63473   -26971.831   -6609.1341 
    2600     1728     502.0073   -28254.618   -6614.3385 
    2700     1728    498.55803   -29334.248   -6616.2424 
    2800     1728    494.24599   -28633.199    -6615.614 
    2900     1728    517.97013   -28144.995   -6609.7915 
    3000     1728    502.24185   -28029.113   -6612.3737 
    3100     1728    504.90299   -27131.259   -6609.2971 
    3200     1728    504.51731    -28122.97   -6613.2103 
    3300     1728    505.97371   -27486.767   -6610.6546 
    3400     1728    499.04977   -28125.342   -6613.3471 
    3500     1728    496.09573   -29008.275   -6616.9163 
    3600     1728    491.81391   -28383.808   -6616.3262 
    3700     1728    504.02564   -28015.667   -6611.5267 
    3800     1728    496.79109   -27885.643   -6612.6045 
    3900     1728    500.67195   -28823.744    -6614.042 
    4000     1728    490.44865   -27824.093   -6613.7777 
    4100     1728    514.65786    -27768.13   -6609.1712 
    4200     1728    508.93329   -28486.956   -6613.2961 
    4300     1728    492.78587   -27692.643   -6612.8509 
    4400     1728    513.28547   -28449.684   -6612.1425 
    4500     1728    515.29387   -27268.846   -6607.0612 
    4600     1728    510.01531   -28467.031   -6612.0658 
    4700     1728    490.02692   -28378.206   -6614.8437 
    4800     1728    488.79444   -28261.441   -6613.6658 
    4900     1728    490.11971   -28411.869   -6613.3466 
    5000     1728    494.55834   -28133.285   -6612.2695 
    5100     1728     513.3829   -28527.685   -6610.4327 
    5200     1728    505.87074   -29208.118   -6613.5963 
    5300     1728    499.81089   -28419.312   -6613.1355 
    5400     1728    505.94793   -27979.556   -6611.1752 
    5500     1728    515.33432   -27566.054   -6608.0256 
    5600     1728    506.39475   -28898.408   -6613.6076 
    5700     1728    490.78891   -28861.382   -6617.9647 
    5800     1728    491.10132   -27730.652   -6613.5031 
    5900     1728    507.64365   -26677.436   -6606.1887 
    6000     1728    502.40486   -28707.765   -6614.2226 
    6100     1728    507.60316   -28851.253   -6613.3902 
    6200     1728    503.59753   -28628.681     -6612.56 
    6300     1728    510.12262   -27310.927   -6607.6787 
    6400     1728    506.04204   -26944.092   -6606.4338 
    6500     1728    499.70181   -28995.587   -6615.8107 
    6600     1728    500.25082   -28266.837   -6615.0066 
    6700     1728    504.70302   -28735.344   -6615.3332 
    6800     1728    501.86694   -28217.252   -6613.0756 
    6900     1728    492.65991   -28938.998   -6616.5727 
    7000     1728    506.19769   -28273.068   -6611.9239 
    7100     1728    495.56282   -28438.671   -6613.6051 
    7200     1728     472.7562   -29375.738   -6621.0808 
    7300     1728    487.66862    -29862.14   -6619.5359 
    7400     1728    488.96001    -28924.73   -6615.9666 
    7500     1728    484.42258   -28673.995    -6616.679 
    7600     1728    493.53186   -28169.878   -6614.2548 
    7700     1728    491.62209   -27614.388   -6612.7363 
    7800     1728    497.67504   -27173.043   -6610.9386 
    7900     1728    499.16831   -28072.634   -6613.2752 
    8000     1728    505.41152   -28681.443   -6614.3563 
    8100     1728    509.40694   -28078.471    -6611.538 
    8200     1728    482.42007   -27779.439   -6615.6211 
    8300     1728    503.88232   -27573.773   -6611.8442 
    8400     1728    507.93005   -27585.909   -6609.8513 
    8500     1728    513.97421   -27965.956   -6610.2884 
    8600     1728    505.56965   -27562.984   -6610.2911 
    8700     1728    498.67671   -27736.644   -6613.3137 
    8800     1728    497.19305   -28321.182   -6615.1503 
    8900     1728    477.28662   -27853.697   -6617.3716 
    9000     1728    510.77074   -27790.707   -6611.7371 
    9100     1728    478.54691   -27178.436   -6615.4984 
    9200     1728    490.14404    -29209.53   -6619.2923 
    9300     1728    487.81019   -29024.452   -6618.8046 
    9400     1728    498.58997   -27955.403   -6612.0379 
    9500     1728    496.42781   -27902.098    -6613.266 
    9600     1728    493.84935   -27688.452   -6612.4259 
    9700     1728    497.17686   -28887.053   -6616.3373 
    9800     1728    490.94535   -28377.876   -6615.6288 
    9900     1728     496.0756   -27458.684   -6611.3668 
   10000     1728    493.68954   -28021.908   -6613.9263 
Loop time of 35.4552 on 1 procs for 10000 steps with 1728 atoms

Performance: 24.369 ns/day, 0.985 hours/ns, 282.046 timesteps/s
99.9% CPU use with 1 MPI tasks x no OpenMP threads

MPI task timing breakdown:
Section |  min time  |  avg time  |  max time  |%varavg| %total
---------------------------------------------------------------
Pair    | 29.399     | 29.399     | 29.399     |   0.0 | 82.92
Neigh   | 3.4071     | 3.4071     | 3.4071     |   0.0 |  9.61
Comm    | 0.19262    | 0.19262    | 0.19262    |   0.0 |  0.54
Output  | 1.644      | 1.644      | 1.644      |   0.0 |  4.64
Modify  | 0.74793    | 0.74793    | 0.74793    |   0.0 |  2.11
Other   |            | 0.06456    |            |       |  0.18

Nlocal:    1728 ave 1728 max 1728 min
Histogram: 1 0 0 0 0 0 0 0 0 0
Nghost:    3867 ave 3867 max 3867 min
Histogram: 1 0 0 0 0 0 0 0 0 0
Neighs:    73700 ave 73700 max 73700 min
Histogram: 1 0 0 0 0 0 0 0 0 0

Total # of neighbors = 73700
Ave neighs/atom = 42.6505
Neighbor list builds = 999
Dangerous builds = 998
info system
Total wall time: 0:03:02
