Nickle Copper Simulation

365 	atoms
0 	bonds
0 	angles
0 	dihedrals
0 	impropers

2	atom types
0	bond types
0	angle types
0	dihedral types
0	improper types

-1.0	22.6	xlo xhi
-1.0	22.6	ylo yhi
-1.0	44.2	zlo zhi

Atoms

	1	1	0.0038	-0.005	0.0023
	2	2	-0.0097	0.0031	5.3959
	3	2	-0.0068	0.0035	10.7963
	4	2	-0.0007	0.0005	16.1908
	5	1	0.0078	0.0022	21.5935
	6	2	0.0093	5.4003	-0.0063
	7	2	0.0099	5.4017	5.3964
	8	1	0.0018	5.3936	10.8033
	9	2	0.0087	5.41	16.2011
	10	1	0.0021	5.4015	21.596
	11	2	0.0014	10.8016	-0.002
	12	2	-0.0012	10.8007	5.3954
	13	1	-0.0023	10.8025	10.7949
	14	1	-0.0061	10.8066	16.2027
	15	1	0.0023	10.8051	21.5929
	16	2	-0.0082	16.1901	0.0005
	17	2	-0.0024	16.1967	5.393
	18	1	-0.0004	16.1937	10.8099
	19	1	0.002	16.2099	16.1941
	20	1	0.0054	16.2086	21.6016
	21	1	0.0059	21.607	0.0021
	22	2	0.0084	21.6013	5.4044
	23	1	-0.0012	21.6057	10.8008
	24	2	-0.0042	21.5968	16.2004
	25	2	0.0055	21.595	21.6055
	26	2	5.4055	-0.0056	-0.0046
	27	2	5.3931	0.0056	5.4056
	28	1	5.4084	0.0073	10.8076
	29	2	5.4056	0.0088	16.191
	30	2	5.3976	0.0062	21.5951
	31	2	5.4075	5.4031	0.0025
	32	2	5.4014	5.3998	5.3995
	33	2	5.4097	5.3957	10.8032
	34	2	5.3999	5.4016	16.1988
	35	1	5.4089	5.3957	21.6004
	36	1	5.3905	10.7976	-0.0028
	37	1	5.3974	10.7989	5.3973
	38	2	5.4068	10.8099	10.81
	39	2	5.4073	10.8078	16.2075
	40	2	5.3901	10.7958	21.5966
	41	2	5.3913	16.1943	0.0062
	42	2	5.4053	16.1949	5.401
	43	2	5.3992	16.2041	10.8068
	44	2	5.394	16.2028	16.2048
	45	2	5.4083	16.1962	21.5938
	46	2	5.3934	21.5995	0.0029
	47	2	5.3985	21.5945	5.3978
	48	2	5.4016	21.5901	10.8079
	49	2	5.4057	21.5988	16.208
	50	1	5.3901	21.6064	21.6056
	51	1	10.8033	0.0078	-0.0075
	52	1	10.7989	-0.0002	5.4058
	53	2	10.7917	0.0033	10.8049
	54	2	10.808	0.0095	16.1945
	55	1	10.7954	0.0064	21.598
	56	2	10.7983	5.3964	0.0043
	57	2	10.7991	5.3913	5.403
	58	1	10.7949	5.3961	10.7908
	59	2	10.7978	5.3998	16.1932
	60	2	10.8059	5.3985	21.5909
	61	2	10.7964	10.7983	-0.0088
	62	2	10.8043	10.8091	5.3948
	63	1	10.8043	10.7907	10.7941
	64	2	10.8035	10.8028	16.2037
	65	1	10.8027	10.8009	21.5966
	66	2	10.7999	16.1937	0.0046
	67	2	10.7923	16.2017	5.3969
	68	2	10.7952	16.1974	10.7937
	69	2	10.7989	16.1977	16.2039
	70	2	10.7943	16.1955	21.5959
	71	2	10.8057	21.6038	-0.0044
	72	2	10.7939	21.5988	5.4042
	73	2	10.8021	21.6095	10.8098
	74	1	10.7933	21.5945	16.1939
	75	2	10.8011	21.6057	21.5965
	76	1	16.2056	-0.0037	-0.003
	77	2	16.1983	0.0072	5.3901
	78	2	16.2012	0.0015	10.8055
	79	1	16.2026	-0.0039	16.1926
	80	2	16.203	-0.0099	21.6021
	81	1	16.1908	5.4049	-0.0038
	82	1	16.2092	5.4096	5.4062
	83	2	16.198	5.401	10.7986
	84	1	16.1948	5.4086	16.1979
	85	1	16.1985	5.4067	21.604
	86	1	16.1926	10.8035	0.0009
	87	2	16.208	10.8097	5.393
	88	2	16.2035	10.8084	10.8044
	89	2	16.2071	10.7902	16.2069
	90	2	16.1929	10.7946	21.5903
	91	1	16.1916	16.1939	0.001
	92	2	16.1978	16.1934	5.4016
	93	1	16.2018	16.2045	10.8033
	94	2	16.1971	16.2036	16.1922
	95	2	16.2083	16.1998	21.6053
	96	2	16.2	21.597	-0.0075
	97	2	16.2041	21.6031	5.39
	98	2	16.2097	21.5984	10.802
	99	2	16.2014	21.6068	16.1943
	100	2	16.1983	21.6063	21.5931
	101	2	21.6091	-0.0078	0.0041
	102	2	21.5985	0.0018	5.4044
	103	2	21.5953	-0.0067	10.8088
	104	1	21.5973	0.0073	16.1958
	105	2	21.607	-0.0088	21.6068
	106	2	21.5971	5.3966	0.0084
	107	2	21.5979	5.3934	5.3906
	108	2	21.5978	5.3947	10.7923
	109	1	21.5997	5.4059	16.2039
	110	2	21.5988	5.3992	21.6099
	111	1	21.5932	10.8001	0.0058
	112	2	21.6046	10.7901	5.4019
	113	2	21.5918	10.8089	10.7987
	114	2	21.5911	10.8032	16.1909
	115	2	21.6042	10.7907	21.6035
	116	2	21.596	16.1916	0.0097
	117	2	21.5933	16.2056	5.4058
	118	2	21.5984	16.2016	10.7941
	119	2	21.5906	16.2015	16.2092
	120	2	21.5922	16.1995	21.606
	121	1	21.6089	21.5959	-0.0084
	122	2	21.6053	21.6051	5.4017
	123	2	21.5977	21.6037	10.794
	124	2	21.5939	21.6061	16.1968
	125	2	21.6055	21.5981	21.5999
	126	1	2.7002	2.7007	-0.0011
	127	1	2.6983	2.7078	5.3984
	128	2	2.7048	2.6956	10.7938
	129	2	2.7098	2.7043	16.1931
	130	1	2.7019	2.7049	21.6087
	131	2	2.694	8.105	0.0002
	132	2	2.6928	8.0961	5.3902
	133	2	2.7022	8.1008	10.8086
	134	2	2.7071	8.1019	16.2097
	135	2	2.6986	8.1064	21.6034
	136	2	2.6944	13.4961	-0.0023
	137	2	2.7098	13.5051	5.4003
	138	1	2.6945	13.51	10.7939
	139	2	2.7049	13.5028	16.2039
	140	2	2.6912	13.5029	21.5987
	141	1	2.7083	18.8962	0.0029
	142	2	2.6945	18.9063	5.3985
	143	2	2.6949	18.8912	10.8046
	144	2	2.6909	18.8969	16.1982
	145	2	2.6921	18.8911	21.607
	146	2	8.1093	2.6921	0.0097
	147	2	8.0929	2.7097	5.4062
	148	1	8.0944	2.695	10.8041
	149	1	8.0972	2.7003	16.1917
	150	1	8.0913	2.7034	21.598
	151	1	8.1029	8.0969	-0.003
	152	2	8.0951	8.0963	5.3955
	153	1	8.1091	8.0961	10.8048
	154	1	8.1038	8.0994	16.2059
	155	2	8.1016	8.1099	21.6035
	156	2	8.0901	13.5005	0.0002
	157	1	8.0994	13.4994	5.392
	158	2	8.1082	13.4961	10.7977
	159	2	8.0946	13.5048	16.2082
	160	2	8.0992	13.4992	21.6044
	161	2	8.1024	18.8997	-0.0039
	162	2	8.0936	18.8988	5.3933
	163	2	8.0979	18.9087	10.8013
	164	2	8.1012	18.9081	16.1924
	165	1	8.0922	18.9042	21.5984
	166	2	13.4941	2.7096	0.0044
	167	1	13.504	2.7082	5.3961
	168	2	13.4983	2.7067	10.7913
	169	2	13.501	2.6936	16.1921
	170	1	13.5024	2.7004	21.5949
	171	1	13.506	8.109	-0.0098
	172	2	13.495	8.0942	5.4011
	173	2	13.4951	8.1078	10.8035
	174	2	13.4922	8.106	16.1978
	175	2	13.5002	8.0988	21.5979
	176	2	13.491	13.5092	0.0024
	177	2	13.5028	13.507	5.4029
	178	2	13.4927	13.5095	10.804
	179	2	13.5026	13.5085	16.1978
	180	1	13.4905	13.5045	21.6008
	181	2	13.5022	18.9007	-0.0035
	182	2	13.5094	18.8971	5.3936
	183	1	13.5003	18.9086	10.7944
	184	1	13.4915	18.8995	16.2039
	185	2	13.5077	18.9049	21.6016
	186	2	18.9064	2.7054	0.0046
	187	2	18.9069	2.7067	5.3984
	188	1	18.9034	2.691	10.7924
	189	1	18.9007	2.7098	16.1917
	190	1	18.899	2.7048	21.6046
	191	2	18.9005	8.1051	-0.0002
	192	2	18.8949	8.1057	5.4014
	193	1	18.9052	8.0937	10.8096
	194	2	18.8933	8.1059	16.1936
	195	2	18.8955	8.0919	21.6076
	196	1	18.9084	13.5043	0.0055
	197	1	18.9035	13.5088	5.4093
	198	1	18.9044	13.5059	10.8029
	199	1	18.8965	13.5012	16.2013
	200	2	18.9056	13.5014	21.5978
	201	2	18.895	18.9013	-0.0016
	202	2	18.9054	18.8923	5.4067
	203	2	18.9075	18.8969	10.8098
	204	1	18.9081	18.9041	16.2079
	205	1	18.8962	18.9074	21.5922
	206	2	2.7092	0.0013	2.6917
	207	1	2.6904	0.0074	8.107
	208	1	2.6928	0.0052	13.5007
	209	2	2.6982	0.0036	18.9002
	210	2	2.6909	5.3952	2.7008
	211	1	2.7059	5.4048	8.0906
	212	2	2.7066	5.4031	13.5041
	213	1	2.6942	5.3919	18.9005
	214	2	2.7048	10.8026	2.7079
	215	2	2.6968	10.8037	8.1041
	216	2	2.7094	10.7989	13.5043
	217	1	2.7038	10.8043	18.9013
	218	2	2.706	16.1922	2.708
	219	2	2.7074	16.2049	8.0944
	220	2	2.7035	16.197	13.5044
	221	2	2.7003	16.2098	18.9078
	222	1	2.6959	21.5931	2.7033
	223	1	2.6919	21.5989	8.1097
	224	2	2.7029	21.5913	13.4942
	225	1	2.7083	21.5922	18.8921
	226	2	8.0946	-0.0045	2.6927
	227	2	8.0903	0.0099	8.1077
	228	2	8.0993	-0.0044	13.4919
	229	2	8.1054	0.0039	18.9068
	230	1	8.0957	5.4076	2.7069
	231	2	8.0983	5.396	8.1086
	232	1	8.1096	5.4023	13.4928
	233	2	8.1022	5.3938	18.8907
	234	1	8.0917	10.7929	2.6999
	235	2	8.109	10.7913	8.0977
	236	2	8.0977	10.7921	13.4993
	237	2	8.0982	10.7956	18.9004
	238	2	8.1055	16.199	2.7003
	239	2	8.0915	16.1941	8.1092
	240	1	8.095	16.1904	13.4966
	241	2	8.0936	16.2034	18.8964
	242	1	8.0932	21.6083	2.6947
	243	2	8.1091	21.6041	8.0986
	244	2	8.0942	21.6006	13.4954
	245	2	8.1038	21.5948	18.9072
	246	2	13.5017	0.0041	2.7071
	247	1	13.4942	-0.0007	8.0963
	248	2	13.4943	-0.0058	13.5013
	249	2	13.5062	-0.0005	18.8956
	250	2	13.4948	5.4043	2.6989
	251	2	13.506	5.4079	8.1015
	252	2	13.4972	5.4004	13.4903
	253	2	13.5051	5.41	18.9049
	254	1	13.4942	10.7938	2.6978
	255	2	13.4911	10.7992	8.095
	256	2	13.4969	10.8087	13.5051
	257	1	13.4993	10.8053	18.905
	258	2	13.5046	16.1981	2.7042
	259	2	13.4904	16.2078	8.0908
	260	2	13.496	16.2069	13.4935
	261	2	13.493	16.2051	18.9092
	262	2	13.5019	21.6074	2.7092
	263	2	13.5083	21.6047	8.0959
	264	2	13.5085	21.5916	13.508
	265	2	13.5049	21.5955	18.8991
	266	2	18.8928	-0.0085	2.6995
	267	2	18.8995	0.0054	8.0977
	268	1	18.9042	-0.0004	13.499
	269	1	18.8921	-0.0067	18.8936
	270	2	18.9095	5.4017	2.6914
	271	2	18.9063	5.4026	8.0939
	272	1	18.8971	5.3924	13.5019
	273	2	18.8964	5.3994	18.8978
	274	2	18.9074	10.7908	2.7086
	275	2	18.9	10.7951	8.1098
	276	1	18.9038	10.7923	13.4982
	277	1	18.9031	10.8046	18.8937
	278	1	18.8955	16.2087	2.6995
	279	1	18.908	16.1985	8.1048
	280	2	18.896	16.1913	13.4913
	281	2	18.9085	16.2074	18.8911
	282	2	18.9073	21.5927	2.7081
	283	2	18.893	21.5995	8.1017
	284	1	18.9041	21.5959	13.5004
	285	2	18.9012	21.5972	18.9066
	286	2	-0.0062	2.7093	2.6971
	287	2	-0.0092	2.7093	8.1016
	288	2	-0.0028	2.6935	13.4996
	289	2	-0.0031	2.6964	18.8997
	290	1	0.0044	8.0989	2.6961
	291	2	0.0096	8.1018	8.0916
	292	1	-0.0093	8.0928	13.5014
	293	1	-0.0005	8.0922	18.8962
	294	2	-0.0005	13.4988	2.7081
	295	1	-0.0011	13.4982	8.1048
	296	2	-0.008	13.5045	13.5069
	297	2	0.009	13.4906	18.8935
	298	1	0.0093	18.902	2.7021
	299	2	-0.0057	18.8947	8.1015
	300	1	0.0052	18.9042	13.491
	301	1	-0.0006	18.9074	18.9083
	302	2	5.3981	2.7006	2.6901
	303	2	5.4021	2.6969	8.1066
	304	2	5.4004	2.7073	13.4975
	305	1	5.4049	2.6918	18.9053
	306	2	5.4098	8.0962	2.7032
	307	2	5.404	8.1042	8.0971
	308	2	5.4059	8.0901	13.4924
	309	2	5.4035	8.0925	18.8934
	310	2	5.4092	13.4954	2.6993
	311	2	5.3993	13.5027	8.1088
	312	2	5.3916	13.4962	13.5028
	313	2	5.4069	13.4909	18.8919
	314	2	5.3914	18.8915	2.7026
	315	2	5.3966	18.9042	8.0948
	316	2	5.3983	18.9021	13.5088
	317	2	5.4019	18.9023	18.8973
	318	1	10.8074	2.7036	2.6945
	319	2	10.81	2.7031	8.0925
	320	2	10.7988	2.6936	13.5054
	321	2	10.807	2.6938	18.9089
	322	2	10.7936	8.1072	2.7026
	323	2	10.7956	8.1061	8.0976
	324	2	10.8059	8.1014	13.5087
	325	2	10.7938	8.0905	18.9006
	326	1	10.7989	13.4965	2.6913
	327	2	10.7909	13.5083	8.0961
	328	2	10.8068	13.4911	13.4968
	329	2	10.8037	13.508	18.8923
	330	2	10.798	18.9052	2.7021
	331	1	10.8002	18.893	8.1025
	332	2	10.7915	18.894	13.4994
	333	1	10.7982	18.892	18.9025
	334	2	16.202	2.6953	2.7071
	335	2	16.1984	2.7099	8.0964
	336	2	16.2098	2.7034	13.4914
	337	2	16.1949	2.709	18.9096
	338	2	16.1953	8.0956	2.6983
	339	1	16.1935	8.0965	8.0934
	340	2	16.2039	8.0979	13.5067
	341	2	16.1918	8.0986	18.8959
	342	2	16.1933	13.5019	2.6948
	343	1	16.1914	13.5062	8.0986
	344	1	16.1923	13.5028	13.494
	345	2	16.1919	13.4924	18.9064
	346	2	16.1989	18.9096	2.6946
	347	1	16.2054	18.9058	8.0971
	348	2	16.2084	18.9091	13.4954
	349	2	16.2011	18.9097	18.9077
	350	2	21.6068	2.7036	2.6909
	351	2	21.6062	2.7046	8.1021
	352	2	21.6099	2.7004	13.4978
	353	2	21.5932	2.7039	18.8996
	354	2	21.6034	8.1057	2.7043
	355	2	21.6054	8.0976	8.1084
	356	2	21.5923	8.0905	13.4921
	357	2	21.6098	8.092	18.9066
	358	1	21.6082	13.5008	2.7071
	359	2	21.5999	13.4992	8.0977
	360	1	21.5968	13.4925	13.5025
	361	2	21.6046	13.5095	18.9012
	362	2	21.5905	18.9078	2.7036
	363	2	21.5998	18.8975	8.1028
	364	2	21.6021	18.904	13.5066
	365	1	21.5939	18.9017	18.9078

Velocities

	1	2.3867818675852037	0.7020554423552147	-2.220418905251962
	2	1.7630136295478112	0.6333281725302257	-1.552511731106663
	3	0.3113573945015862	1.273944424424319	0.6485410832256101
	4	3.784421443789361	2.4530686105158415	4.776125304056044
	5	-3.3206296646537052	0.6192881199151071	3.280645000063386
	6	2.5761266256396724	-0.4468486930989169	-1.6258541636725747
	7	-0.5213688756177973	3.182795567104971	-0.00686588188476039
	8	0.8771853127517585	1.9268725136370302	1.4474016282423605
	9	0.36656496369184005	-1.3763337233459112	2.2144907282484225
	10	3.717836024248158	-1.2291449618893344	2.3022328381209487
	11	3.7173731179554346	-1.00044594997369	2.691640965058614
	12	0.4608995169947709	-1.2911052599187463	-0.5538880651407829
	13	-1.4992261564774387	-1.1960304705348523	2.3168649125674414
	14	-2.0071636782907505	0.2355827281219527	-1.9868988745030969
	15	0.20395704166493803	0.4978041344075557	1.5056497530459212
	16	0.5777716994294757	3.200915885256405	-0.32163620070812804
	17	-2.6780749337209637	0.24625647619019364	1.5164914264539053
	18	0.9525679895997224	0.8652004466109953	0.6609468987245298
	19	2.256886433427202	1.197816911927353	2.916127449198765
	20	1.4615729776708555	-3.389118884388142	0.05006801215012255
	21	1.4456183407847907	1.8004390758497397	-1.219527213121054
	22	0.014339511992367528	1.3991251414654586	-1.0426582830759177
	23	1.5317953401123685	1.4355596645069397	-1.459133452720563
	24	1.4567555246239872	2.5040417054656388	-1.9140658949602711
	25	1.5571756261026792	-1.7068761570349642	-4.5871075605604394
	26	1.7742590742346527	-1.7064665298309813	-2.129810832428511
	27	-2.627144843367353	1.7763146871240332	1.5982868502431617
	28	0.19369901853096697	-2.63398019633134	-0.23799145426737617
	29	-1.4177837237495	-0.12438323095012495	0.15405330504665507
	30	1.1698540426741308	-1.8742469416048582	-3.117605134175942
	31	-1.124956345834337	-3.726695221000176	1.259523271118788
	32	0.45694051516704226	2.6785484311509475	0.49491812494472953
	33	3.0630602701315413	0.2777497241209597	1.4342419253201948
	34	-2.179025020801404	-0.5827786604419818	1.3542105077629083
	35	-2.7567304003809805	-0.043657611798142905	-5.884539444106806
	36	-0.9876851020713775	0.4762052896306621	-2.1443558982660558
	37	0.13074116623842472	-0.7549703302884723	-0.2586858598567727
	38	1.3951017878728764	0.07847719138425989	0.5997493188857098
	39	1.0751152393397225	3.912141547875266	0.6399161758208697
	40	-0.2476374790336656	-0.006288748100883711	3.4241644700524883
	41	0.33846875866736037	-0.10297825433040324	0.1547011671731203
	42	-0.02739586675959985	-0.46730633869287724	-0.7419985576340445
	43	0.5499019191676013	0.9430599533652632	0.8445456954748846
	44	3.1620041955396596	0.9447937069425419	0.08448053106303696
	45	1.5952504255070055	-1.2109454282736496	1.6616184241989482
	46	-0.8273069381424563	-0.8831255898465389	1.346872901328508
	47	-0.8964479558240195	1.868958896221447	1.2900077858064514
	48	2.2983911127622765	-1.7535459704356546	2.7571413711197326
	49	-1.807917208496627	-1.0569794215632864	1.9201405104234468
	50	0.6767580233651171	0.6570770414399899	-1.710960370201457
	51	-3.46403906839956	0.4625783761123987	6.369447553551808
	52	-2.790109965571165	0.3649538770560992	-2.6952254744551323
	53	-1.8407314062724405	4.113547682849995	-1.488862160130069
	54	2.2688365959874623	0.45309423350635625	-1.3104055185059162
	55	-1.8575824241582597	0.5757673147853444	0.0675925375965711
	56	0.29379865351452006	-0.9564438408765403	0.5873762653687351
	57	0.3841908728130752	-3.487412202323677	0.670053740806455
	58	-0.23686207550378477	-2.8657093691819218	-2.371474180316345
	59	-1.5761780014558944	0.8244499774697738	-0.4501033204705221
	60	-1.9774757559634875	1.2403857955931186	2.4598615975554172
	61	-1.6269498339929351	-1.189670706235248	1.1232291358292943
	62	1.9893714074839581	-2.671608240457515	2.8701421563963243
	63	-2.5727187613940763	-1.8690568561383123	1.915950333497063
	64	-0.6038820669083669	2.176178856019554	2.8206590995993563
	65	-5.215040871558215	-0.8989825810992547	1.2608313670530265
	66	-2.768465601759335	-0.6610525579502834	-0.4738746109100147
	67	-1.9981017663909393	0.625245817477271	0.8963854769444755
	68	-0.7979376221255724	4.329353112630979	2.2292004688679787
	69	0.6816542518653008	-1.4029914688244298	-0.3611671948565811
	70	0.8350909696380575	-0.02081041080698917	-0.1413634719954533
	71	-0.34777973906358517	1.0480483414367106	-1.146371206940905
	72	1.2767678243646725	1.5174042685811662	1.7815670921834292
	73	0.4852067729831277	-0.8062351234618146	0.3453222133348477
	74	-1.63805275322899	0.4947380823982794	-1.5097937630851193
	75	-0.9141976092067707	0.42688288500443455	-1.5077171001187584
	76	1.0831059040452058	1.0724601389695299	-0.9138683561150086
	77	2.2355626129604214	-0.8517175162161282	1.715973571118593
	78	-0.44211609836417404	1.4988642877771419	-0.3820227950411834
	79	-1.216895988589843	0.8813573076732342	-0.42646739916851567
	80	-0.00844486367585974	-3.3292412078344342	1.7369565838330185
	81	-0.7120861991194	-2.8280567860494012	1.8882790457580585
	82	-0.5339376398642329	-4.900314522936598	-0.07908231940067374
	83	-0.9721851731509047	-0.49802367400974923	0.6867503214666307
	84	-0.4439493986321174	1.346635767836994	-2.8923987676713465
	85	1.31209209343881	-2.711862803888184	-1.7392776833468644
	86	-2.2449956197061542	-1.6178029755035004	0.7359874810949167
	87	-2.386784438497504	2.300513684845914	1.7777448978546033
	88	-3.141651354258522	0.7763676737719887	0.9787441889307099
	89	2.5421156369953772	-0.36968144645694756	-0.03464611689252835
	90	-0.1634162558231862	0.5455581020545259	-1.8562291314958768
	91	1.8175099660630742	2.0429104161655363	-0.2582426222852193
	92	-2.3583234402743405	-0.9174403337309792	-1.0899706826544402
	93	-0.03416244737974679	-0.17226267476483567	-1.6120881129679245
	94	-0.45084506037035493	0.8918466607004489	0.9353063557514599
	95	0.11424141719163419	1.9126807450648866	0.7584389723166522
	96	0.21009911019376754	-3.152274246091017	2.3981822378627977
	97	-0.33065247092587075	1.3741587660486088	0.8515429587151413
	98	-3.666989032428166	-0.6926233912490898	-0.2864349620207154
	99	1.2994283528005746	2.8838520969099513	2.5594482370899327
	100	1.4596109677990008	-0.42362852503223836	0.15335410163229762
	101	2.19186625216951	-2.3466921713505604	-2.4582974977647494
	102	-4.497918747537295	-1.9923214684564163	0.16821485278439344
	103	0.720412190652349	0.7257508581455391	-2.6252017091026834
	104	-0.40830639915133005	-1.311117727611151	2.092404086771832
	105	1.5250613527556112	2.2595773193878155	-2.1495676474567547
	106	3.3699754127819705	0.5617382620155826	-1.6970292188931273
	107	4.044296515086204	3.04722664683609	4.3328719546254035
	108	-2.039631646831153	0.06152143773108598	1.509666436411874
	109	2.5169739783313974	0.21663211359540527	-0.31955740639449726
	110	1.1140995395876998	-0.8311743425435056	-3.3897165428094107
	111	1.3854637793596993	-0.2525076488026406	0.20224449316995116
	112	-4.816624609886355	0.752615218556455	0.11062611308038009
	113	1.3695124259042024	-1.7882910458518861	1.4257604550667526
	114	-1.8221905478046128	0.25511337222379055	-1.271010794274955
	115	1.7815077637565682	-4.334808738187948	-2.5425719188850153
	116	-1.5389623882777694	-1.8396724642681612	0.1242590029324987
	117	-1.9225713070532564	-0.0023232925754488242	1.2207132290836096
	118	0.6746416121279132	-0.09277149724807916	-4.0782686044353875
	119	-5.76446690102848	3.444393798783517	-0.9519427220832082
	120	0.06393435116296771	-0.8601713144821134	0.029141266616192634
	121	-1.7455312768006581	-2.6352171088163865	1.2139150635431537
	122	5.464139826414944	1.2984730014314996	-0.20286845911760024
	123	-1.6517688027722157	-1.95448231813508	-0.8548026671210038
	124	1.5190646076680878	-3.7444600036852993	-3.2110355392347327
	125	-0.3651325932873827	-2.991162473093952	0.6651197311639074
	126	-2.1549861508855312	1.3736019849872554	-0.9181690380482558
	127	3.718038222842996	1.121871399372937	3.188640661745556
	128	-1.9180302907623146	-1.4070589016787938	2.5247185524320805
	129	-0.12111649578314503	0.2198631154188293	-0.9274896880490969
	130	0.517112263238992	-1.3720278433773054	1.1527964696791473
	131	-0.660583610408114	1.4006204050309532	-1.7591011363086675
	132	1.0441246645746516	0.886004088559597	-0.459469556666703
	133	-0.40154602602641176	-0.7895845298064365	0.5296437945534055
	134	-0.34480020609373585	-0.5632669663796827	0.6478438486527325
	135	0.8091703232613616	0.310837132275549	0.6835358518473752
	136	0.1922849412368501	-3.0841790659447637	-2.5066812746379363
	137	-2.984160921051814	-0.34946321629420624	0.8870152425164547
	138	2.0767015202948973	-1.3193630173853894	0.07138600862516943
	139	-1.858431667813238	2.060999785755299	1.8955916477164279
	140	-0.7608528469245335	-2.9722532395227	0.2694653102971503
	141	1.601969962691652	0.2544028462135113	-0.0431594810288108
	142	1.6713259640105644	-0.1701046857906988	3.9029777792929883
	143	-2.832151834945681	0.3689387694007249	-1.6934042610854543
	144	-0.8542087301918097	-1.6889940425704737	-4.202228914669982
	145	1.085102083692115	2.1624672423615547	-1.383740364098395
	146	-0.8665159627481898	-2.7108876396062747	2.8513109531215295
	147	1.3948871360353128	-0.625806820304319	-0.15739688157000495
	148	1.4941123758680566	-0.9413574778785457	-0.37916592505162516
	149	-0.8370944627649818	2.458239792365832	-0.42500286778298946
	150	0.5893802569069729	-0.20402826069067867	1.0930962041623546
	151	-0.3122452732038652	1.8047244859724654	-1.3337833036966515
	152	-2.0032464423811653	1.8207764608131238	5.034377894881603
	153	-1.511147048037414	-1.8280721319527238	-1.4755446938413908
	154	-1.783583427194047	-3.4824893285346685	0.6395144256870987
	155	-0.0389733542921413	0.03716986154122976	-1.1294005637052302
	156	-1.6937534221038422	-0.21464099397136754	2.048455339873714
	157	-0.1135917407860877	-1.2116027515319865	-0.887186318041476
	158	-0.17416466807194408	2.243503079563173	-0.48716509724966744
	159	2.3514721194443595	2.2033158379485465	1.6128655568706538
	160	0.2936116642731524	1.1321663599506344	-3.7643892637072423
	161	0.8584080317664436	-0.12377586977381871	0.7873403956748133
	162	-0.41393663059362074	-2.798816596968012	-1.0661756008760261
	163	-0.48492730071460705	1.025607108169177	1.454999448933682
	164	0.5670304351989196	0.8432315696763613	2.06389905865014
	165	1.4646645116494126	-1.6815096534398652	-1.139260087347759
	166	0.7828622257224223	-0.660627964604566	-1.803784735512393
	167	-0.4153397073657914	2.943460048636967	-1.3110469762900194
	168	1.7001836515258728	-1.0731893679702404	0.30883461881461666
	169	-0.18232574380410385	-0.349799546954783	2.1769156107638223
	170	0.7550079728058007	0.395829381000713	-2.823235921033691
	171	-2.100619766984644	0.6766930939872967	0.8026437781137804
	172	0.436026274118063	-0.880594931276493	-2.466253498782658
	173	5.821944655211245	-5.061719463626593	4.5914839916291585
	174	2.1570178148253496	-1.6424906158486159	-2.139895905058263
	175	-0.33559785417369514	0.8521164972675737	-0.40962861113605054
	176	-0.9816175267633821	1.632065057075593	0.2896284675993405
	177	2.614304978322196	0.015663199059893523	-1.943972670761562
	178	-0.8276420534191702	2.9198217077327744	0.4463551653707557
	179	1.0353905707000728	0.9128829443524922	-4.3435493084853825
	180	1.4537792087346761	-0.9782146022060263	-1.4962593363606653
	181	-1.1156668623876953	-3.0017979492624716	-0.30842706746697385
	182	-1.5546579432600276	-0.43212325190718576	0.17776201286053567
	183	-1.3397055788802845	-4.632986756024916	-1.8610008238626374
	184	-0.5029842145150576	3.143301809515656	2.3037516480300213
	185	2.7662052803175516	0.36564654134783975	0.5676467904674185
	186	-1.6830386799035542	-0.9635408148648532	-2.380256442149497
	187	0.8386564664753529	-0.2803560763904984	1.5662976933332537
	188	-1.9534141871613029	-2.35276930252531	-0.0905014375766319
	189	0.009727591821213275	3.695416177154945	-2.3414406830415437
	190	0.2750817258180831	0.40174525496414826	2.595413495684667
	191	1.7032537684978368	1.882883456656829	2.3290148629492924
	192	-4.165562436512527	2.9052273805090136	1.0643846155142533
	193	-0.014599345965240972	-1.336933729720577	0.6394328887999673
	194	0.7908000196929801	-2.1223048535214044	2.586468711517824
	195	4.467633101988647	-0.5897998354545816	4.556728709173808
	196	-0.22933383653061878	-0.24665116909169896	-3.046480135186761
	197	1.203643303326601	1.38911818263816	0.37111465128254517
	198	-3.7215435135583164	0.0825396166837293	6.366890786722208
	199	0.45450869187172266	2.8692534990315766	1.762926725664826
	200	1.6123701022941	-2.0520107650354564	-0.12076375390050434
	201	1.7638366057821706	-0.28880832348162533	-0.5950518196220624
	202	-0.7577156081475352	3.402155760983761	-0.2792583391270944
	203	0.9147606488186352	-0.2595516319185119	0.5138311237048985
	204	1.6074851363799827	0.6735716192193303	-1.8461043344495127
	205	-1.6207343599318238	3.5768090315869814	0.44323139260805355
	206	0.6479475371907976	-2.261657038142016	0.8752839110107963
	207	1.0233887034043228	0.8812614505546438	-1.633400857836438
	208	-0.690191247720346	2.5811037800783203	1.4880127099919238
	209	1.0459977753244971	-0.184569857933699	-2.299721306192324
	210	2.6127878697197553	0.8772675295123064	0.08712788763183926
	211	-1.5978841628178424	1.1650362701781616	1.180840309238481
	212	0.07793039068037666	3.1550006283482124	-0.32219914382750864
	213	0.8173795830497654	0.8366745158736082	-3.978860103955976
	214	-2.1632664461810096	-2.307767885283977	2.2394522539887487
	215	-1.1797104180203553	-2.6196266341651318	-0.43837600903929386
	216	-1.8503154667508492	-0.6822760978144631	-0.2020315926707759
	217	-2.737006815344591	-1.5379301521092097	-0.34280946684305263
	218	3.2481477797584764	0.39157839626758556	0.4359343902187717
	219	0.18997657850800184	-0.5185466709713547	0.820448185652174
	220	-0.5696247499878498	0.4876375328812637	0.07708366413688146
	221	5.092005022477399	-0.523652048970882	2.1385174163676193
	222	2.7577451734366663	1.429419834889609	1.9585025436815888
	223	-0.22492588627817306	4.635407402374402	1.6335426016622232
	224	-0.19866041419654	3.977452188093813	-0.39526589890452
	225	0.9675688008397929	0.7149564390490906	6.6905587123482615
	226	1.2092477977249978	0.8003265281175129	0.3121298150144285
	227	0.6474645739020631	1.7129478246559648	3.8169824267246106
	228	-1.9387806484277892	-1.7507949073868394	-0.06920858736393794
	229	-1.7340994938381713	0.26451693992564546	-1.2872864208465324
	230	1.7733515529693247	-0.9582910718172439	-0.8514663288204434
	231	1.2961558802106325	2.907469146863091	0.9712455850749403
	232	-0.05561705022773183	-2.59991687354448	-4.826367191090027
	233	-0.33371043373367165	-0.31487643609032706	0.3748762176093824
	234	-2.3925043685345204	-4.3416219125368904	2.170990006945195
	235	-2.9905440036496076	-0.2636095307910849	-2.4236909032225014
	236	-0.5641704999853492	1.7585864165276073	0.6858192858374534
	237	-2.222689342232074	0.42679372052444814	0.6215429192242414
	238	1.5703855024120732	1.3625966083930485	0.8999510108884592
	239	-0.8023285604058439	-0.4471755543333771	-0.34279125501392654
	240	-0.3469605603440055	-1.2600133764690749	-4.630582847666437
	241	-1.6742265131226748	-2.583469029943954	3.0455662875411424
	242	-2.2615907657238	1.8222583351433983	-3.4760943289764947
	243	-2.805184403107163	-1.4972259157919965	-0.2878925191126173
	244	-5.122707813101823	0.9234064136273015	2.977923867157209
	245	-4.690774655909958	2.685831991032222	-0.0979038908941675
	246	2.8502139034589655	1.5716579001548712	0.9398564231536991
	247	3.8656936663256682	-1.2886830626063128	3.20709866839244
	248	5.244762404914964	-0.23090572541346896	-4.839360147242081
	249	2.1738765054801337	3.9057622261346308	0.4150232341360335
	250	2.9806243995431787	-1.024672150362759	0.745027325917677
	251	-3.4402509880103915	1.8498669703954347	-1.958821790876093
	252	1.164903151383479	0.29123196473008384	1.2237644941540906
	253	-2.4198574805035715	-2.694473370255881	2.02212204143816
	254	2.1065840448103423	1.1042408681609848	-0.5860992022975441
	255	-1.5014510285951803	-0.6017110546014426	-0.22640606694346616
	256	-0.3542710153315713	-1.225872413626584	-0.01028834777528084
	257	-0.57250596320025	1.3439868538227904	-3.9212789145377767
	258	-2.0053790160224643	-2.268285402117788	-1.2038270590588707
	259	-1.6463570684504076	-0.10532940200495065	1.3379188267078204
	260	1.0887239606434314	1.113794662435124	-4.170925245945135
	261	-2.503537305278818	1.3594793464599235	-1.1275738455265703
	262	0.6694954833936758	1.4779151376165913	-0.34672941690598996
	263	-0.38463046282210495	-2.3306889502877994	-1.6612827787273872
	264	0.6626125253279335	-1.022616798406424	-0.08005063230583583
	265	2.3141518218332497	-2.8048311285116516	-2.083288923265293
	266	-1.7733640526871286	-0.3138910313376063	1.2548864489162923
	267	-3.2882981973849903	-2.652279725719311	1.2978983057813316
	268	-0.5568974581351577	1.937085700810035	-0.2553013346757286
	269	-2.9952431693643153	-2.483377478323075	-2.0723786491688756
	270	-0.7814882937109863	-1.9097206799040116	-1.4904056837330362
	271	-1.7039230821235478	0.26796291403659944	2.401573335180835
	272	0.39950735514108	0.6400195526069776	0.2896896525621989
	273	4.212057613660389	-1.8828786036487106	-2.2141977976326728
	274	1.641780887560088	2.0779067514644654	-3.665085118831208
	275	-1.4410672363399628	-4.338174815035309	5.980759390665226
	276	-0.594286519654272	-0.8188608555977929	-0.9884683243775473
	277	1.0185355349836085	-2.379760473978777	0.934495458082689
	278	-0.2186396095981105	-1.7077044592678803	0.2541592643927757
	279	-2.307176262664281	0.07514854374516479	-1.201046299333787
	280	-2.0894659248894265	0.5999116951934487	-2.199885743498059
	281	0.6548483045796787	2.1373281267328625	-0.5055550536655676
	282	-0.19922240667299984	-1.083311612062201	-0.349993519316421
	283	-0.9186398070907285	-0.9399986780267948	1.6975109708649219
	284	0.4227457575526506	-0.05467186925667139	-1.4935642638144315
	285	1.6742143080789096	-0.9523829982529081	2.06749699765439
	286	0.0001908317433606377	3.7073753727625554	-0.06637941483796095
	287	-1.7879267065647904	-2.162306933559607	1.9656297414982593
	288	-1.1704063067417798	6.123038251886497	-1.4865816994042238
	289	-2.0735167795368623	-2.135249608737538	-0.7728968741687787
	290	1.0250224550641966	-0.2836460424324288	-0.5964126049332913
	291	1.9703151658527265	1.192929001180244	0.3026730797222398
	292	-0.01738246347839203	2.1318007306539	2.949028718031998
	293	0.179418571655701	1.8740814914133426	1.7633054598305924
	294	2.2327302404815654	3.9148969288339135	-0.3531529256316262
	295	-1.9898975804555628	-3.2750852453574666	2.267123469744341
	296	-0.05282062551292237	-0.4310651951929576	0.6484579266455189
	297	-3.3309494308801066	-0.6435177449244734	-2.3341236682838407
	298	-2.700423500345184	0.6844097395521647	-1.4626952197359215
	299	-2.457174795927877	-2.2967527540759987	-1.4292879475555167
	300	-1.8929914547692672	1.12771920508376	0.3139406190546737
	301	-2.1793357295710827	-1.838889676388517	0.7931463148301086
	302	-0.5627819226167243	-2.830681694248512	1.2423633700421828
	303	2.5803565653484264	1.6698570952358571	-0.1080027085329184
	304	1.9870441745490761	0.8726347578878302	-1.0639773586014634