ITEM: TIMESTEP
0
ITEM: NUMBER OF ATOMS
432
ITEM: BOX BOUNDS xy xz yz pp pp pp
-7.2599999999999998e+00 5.4449999999999996e+01 0.0000000000000000e+00
0.0000000000000000e+00 1.0890000000000001e+01 0.0000000000000000e+00
0.0000000000000000e+00 1.0890000000000001e+01 0.0000000000000000e+00
ITEM: ATOMS id type x c_ptm[1] c_centro 
1 2 0 0 19.7653 
2 1 1.815 1 1.57772e-29 
3 1 1.815 1 1.57772e-29 
4 2 0 0 19.7653 
5 1 0 0 19.7653 
6 1 1.815 1 1.26218e-29 
7 1 1.815 1 1.57772e-29 
8 2 0 0 19.7653 
9 2 0 0 19.7653 
10 1 1.815 1 1.26218e-29 
11 1 1.815 1 1.57772e-29 
12 1 0 0 19.7653 
13 2 0 0 19.7653 
14 2 1.815 1 1.57772e-29 
15 2 1.815 1 1.26218e-29 
16 1 0 0 19.7653 
17 1 0 0 19.7653 
18 2 1.815 1 1.26218e-29 
19 2 1.815 1 1.26218e-29 
20 2 0 0 19.7653 
21 1 0 0 19.7653 
22 2 1.815 1 1.26218e-29 
23 1 1.815 1 1.26218e-29 
24 2 0 0 19.7653 
25 2 0 0 19.7653 
26 2 1.815 1 1.57772e-29 
27 2 1.815 1 1.26218e-29 
28 1 0 0 19.7653 
29 2 0 0 19.7653 
30 2 1.815 1 1.26218e-29 
31 1 1.815 1 1.26218e-29 
32 2 0 0 19.7653 
33 1 0 0 19.7653 
34 2 1.815 1 1.26218e-29 
35 1 1.815 1 1.26218e-29 
36 1 0 0 19.7653 
37 1 3.63 1 1.19907e-28 
38 2 5.445 1 5.36425e-29 
39 1 5.445 1 5.36425e-29 
40 1 3.63 1 1.13596e-28 
41 1 3.63 1 1.16751e-28 
42 2 5.445 1 5.04871e-29 
43 2 5.445 1 5.36425e-29 
44 1 3.63 1 1.13596e-28 
45 2 3.63 1 1.16751e-28 
46 1 5.445 1 5.04871e-29 
47 1 5.445 1 5.36425e-29 
48 2 3.63 1 1.13596e-28 
49 2 3.63 1 1.16751e-28 
50 1 5.445 1 5.36425e-29 
51 2 5.445 1 5.04871e-29 
52 1 3.63 1 1.13596e-28 
53 2 3.63 1 1.13596e-28 
54 2 5.445 1 5.04871e-29 
55 2 5.445 1 5.04871e-29 
56 2 3.63 1 1.13596e-28 
57 2 3.63 1 1.13596e-28 
58 2 5.445 1 5.04871e-29 
59 1 5.445 1 5.04871e-29 
60 1 3.63 1 1.13596e-28 
61 2 3.63 1 1.16751e-28 
62 1 5.445 1 5.36425e-29 
63 1 5.445 1 5.04871e-29 
64 2 3.63 1 1.13596e-28 
65 1 3.63 1 1.13596e-28 
66 1 5.445 1 5.04871e-29 
67 2 5.445 1 5.04871e-29 
68 2 3.63 1 1.13596e-28 
69 2 3.63 1 1.13596e-28 
70 1 5.445 1 5.04871e-29 
71 1 5.445 1 5.04871e-29 
72 2 3.63 1 1.13596e-28 
73 2 7.26 1 1.89327e-29 
74 2 9.075 1 5.36425e-29 
75 2 9.075 1 5.36425e-29 
76 1 7.26 1 1.26218e-29 
77 1 7.26 1 1.57772e-29 
78 2 9.075 1 5.04871e-29 
79 1 9.075 1 5.36425e-29 
80 1 7.26 1 1.26218e-29 
81 1 7.26 1 1.57772e-29 
82 2 9.075 1 5.04871e-29 
83 2 9.075 1 5.36425e-29 
84 2 7.26 1 1.26218e-29 
85 1 7.26 1 1.57772e-29 
86 1 9.075 1 5.36425e-29 
87 2 9.075 1 5.04871e-29 
88 1 7.26 1 1.26218e-29 
89 1 7.26 1 1.26218e-29 
90 1 9.075 1 5.04871e-29 
91 2 9.075 1 5.04871e-29 
92 2 7.26 1 1.26218e-29 
93 2 7.26 1 1.26218e-29 
94 1 9.075 1 5.04871e-29 
95 1 9.075 1 5.04871e-29 
96 2 7.26 1 1.26218e-29 
97 2 7.26 1 1.57772e-29 
98 1 9.075 1 5.36425e-29 
99 2 9.075 1 5.04871e-29 
100 1 7.26 1 1.26218e-29 
101 2 7.26 1 1.26218e-29 
102 2 9.075 1 5.04871e-29 
103 1 9.075 1 5.04871e-29 
104 1 7.26 1 1.26218e-29 
105 1 7.26 1 1.26218e-29 
106 1 9.075 1 5.04871e-29 
107 2 9.075 1 5.04871e-29 
108 2 7.26 1 1.26218e-29 
109 2 10.89 1 6.31089e-30 
110 2 12.705 1 3.15544e-30 
111 2 12.705 1 3.15544e-30 
112 1 10.89 1 0 
113 1 10.89 1 3.15544e-30 
114 1 12.705 1 0 
115 2 12.705 1 3.15544e-30 
116 2 10.89 1 0 
117 2 10.89 1 3.15544e-30 
118 2 12.705 1 0 
119 1 12.705 1 3.15544e-30 
120 1 10.89 1 0 
121 2 10.89 1 3.15544e-30 
122 1 12.705 1 3.15544e-30 
123 2 12.705 1 0 
124 1 10.89 1 0 
125 1 10.89 1 0 
126 2 12.705 1 0 
127 2 12.705 1 0 
128 2 10.89 1 0 
129 2 10.89 1 0 
130 2 12.705 1 0 
131 2 12.705 1 0 
132 2 10.89 1 0 
133 1 10.89 1 3.15544e-30 
134 2 12.705 1 3.15544e-30 
135 2 12.705 1 0 
136 1 10.89 1 0 
137 1 10.89 1 0 
138 2 12.705 1 0 
139 1 12.705 1 0 
140 2 10.89 1 0 
141 1 10.89 1 0 
142 1 12.705 1 0 
143 2 12.705 1 0 
144 1 10.89 1 0 
145 1 14.52 1 4.60695e-28 
146 2 16.335 1 2.05104e-28 
147 2 16.335 1 2.05104e-28 
148 2 14.52 1 4.54384e-28 
149 1 14.52 1 4.57539e-28 
150 2 16.335 1 2.01948e-28 
151 1 16.335 1 2.05104e-28 
152 1 14.52 1 4.54384e-28 
153 2 14.52 1 4.57539e-28 
154 1 16.335 1 2.01948e-28 
155 2 16.335 1 2.05104e-28 
156 2 14.52 1 4.54384e-28 
157 2 14.52 1 4.57539e-28 
158 1 16.335 1 2.05104e-28 
159 1 16.335 1 2.01948e-28 
160 2 14.52 1 4.54384e-28 
161 1 14.52 1 4.54384e-28 
162 1 16.335 1 2.01948e-28 
163 2 16.335 1 2.01948e-28 
164 2 14.52 1 4.54384e-28 
165 1 14.52 1 4.54384e-28 
166 2 16.335 1 2.01948e-28 
167 1 16.335 1 2.01948e-28 
168 1 14.52 1 4.54384e-28 
169 2 14.52 1 4.57539e-28 
170 1 16.335 1 2.05104e-28 
171 2 16.335 1 2.01948e-28 
172 2 14.52 1 4.54384e-28 
173 1 14.52 1 4.54384e-28 
174 2 16.335 1 2.01948e-28 
175 1 16.335 1 2.01948e-28 
176 2 14.52 1 4.54384e-28 
177 1 14.52 1 4.54384e-28 
178 2 16.335 1 2.01948e-28 
179 2 16.335 1 2.01948e-28 
180 2 14.52 1 4.54384e-28 
181 2 18.15 1 2.08259e-28 
182 2 19.965 0 7.65475 
183 1 19.965 0 10.1767 
184 1 18.15 1 2.01948e-28 
185 2 18.15 1 2.05104e-28 
186 1 19.965 0 11.4174 
187 1 19.965 0 11.079 
188 1 18.15 1 2.01948e-28 
189 1 18.15 1 2.05104e-28 
190 2 19.965 0 8.78841 
191 1 19.965 0 8.87366 
192 2 18.15 1 2.01948e-28 
193 1 18.15 1 2.05104e-28 
194 1 19.965 0 13.1769 
195 1 19.965 0 8.11024 
196 2 18.15 1 2.01948e-28 
197 1 18.15 1 2.01948e-28 
198 1 19.965 0 10.3665 
199 2 19.965 0 4.75929 
200 1 18.15 1 2.01948e-28 
201 1 18.15 1 2.01948e-28 
202 1 19.965 0 4.35499 
203 1 19.965 0 10.3341 
204 2 18.15 1 2.01948e-28 
205 2 18.15 1 2.05104e-28 
206 2 19.965 0 9.21864 
207 1 19.965 0 11.8965 
208 2 18.15 1 2.01948e-28 
209 2 18.15 1 2.01948e-28 
210 2 19.965 0 13.1948 
211 2 19.965 0 4.21806 
212 2 18.15 1 2.01948e-28 
213 1 18.15 1 2.01948e-28 
214 2 19.965 0 12.345 
215 1 19.965 0 13.2686 
216 1 18.15 1 2.01948e-28 
217 2 21.7802 0 9.03063 
218 2 31.7694 0 11.5097 
219 2 22.8046 0 11.9283 
220 2 42.1376 0 23.0375 
221 2 39.8784 0 15.2693 
222 2 33.3169 0 12.3012 
223 2 30.1308 0 7.01942 
224 2 36.7379 0 9.21912 
225 2 40.2095 0 15.6683 
226 2 36.0224 0 17.182 
227 2 41.6068 0 9.05695 
228 2 22.8138 0 23.2635 
229 2 35.5589 0 5.07508 
230 2 29.7371 0 19.2793 
231 2 37.5195 0 5.4249 
232 2 23.3631 0 15.4296 
233 2 27.7196 0 8.69785 
234 2 32.185 0 8.13865 
235 2 29.6048 0 5.63135 
236 2 41.331 0 41.2145 
237 2 41.4833 0 13.5436 
238 2 28.7285 0 4.16848 
239 2 27.5766 0 11.2835 
240 2 23.3863 0 9.26536 
241 2 27.8148 0 6.53507 
242 2 31.8956 0 7.78414 
243 2 38.3658 0 16.6306 
244 2 24.5105 0 11.7292 
245 2 40.6904 0 27.1939 
246 2 37.5795 0 19.5537 
247 2 26.859 0 9.91408 
248 2 32.9591 0 8.6192 
249 2 30.7551 0 16.6102 
250 2 30.8273 0 8.03885 
251 2 28.0355 0 9.15929 
252 2 34.2306 0 9.40985 
253 2 33.4203 0 12.741 
254 2 38.0778 0 12.1845 
255 2 35.3892 0 4.80066 
256 2 26.4137 0 14.5311 
257 2 23.7618 0 10.6821 
258 2 30.8033 0 11.2237 
259 2 42.2074 0 7.53005 
260 2 28.696 0 7.36972 
261 2 25.0543 0 9.82519 
262 2 30.2247 0 15.2124 
263 2 34.5689 0 6.95765 
264 2 42.5888 0 7.21054 
265 2 43.1964 0 12.3945 
266 2 34.0835 0 12.8611 
267 2 31.8866 0 12.7453 
268 2 26.1307 0 9.59973 
269 2 24.5398 0 2.85223 
270 2 39.2709 0 8.40166 
271 2 30.2593 0 11.4809 
272 2 41.4184 0 6.81107 
273 2 42.4163 0 4.97148 
274 2 41.0694 0 7.80916 
275 2 23.3278 0 3.87334 
276 2 24.7227 0 8.98572 
277 2 29.3926 0 16.0479 
278 2 42.0719 0 7.10456 
279 2 36.5815 0 12.6081 
280 2 40.5295 0 7.2477 
281 2 34.8566 0 6.0522 
282 2 31.8477 0 13.468 
283 2 31.3486 0 4.24612 
284 2 37.0741 0 15.7251 
285 2 40.3207 0 12.6796 
286 2 32.9844 0 14.5541 
287 2 34.3409 0 7.66715 
288 2 37.6739 0 10.5552 
289 2 39.2197 0 6.54988 
290 2 22.1958 0 9.92877 
291 2 31.8712 0 5.01777 
292 2 32.4292 0 15.51 
293 2 26.1263 0 8.66457 
294 2 41.1646 0 8.7928 
295 2 31.5886 0 12.0533 
296 2 31.4944 0 9.55258 
297 2 40.9792 0 11.9571 
298 2 39.3488 0 19.5673 
299 2 43.5408 0 63.7824 
300 2 35.2041 0 11.4806 
301 2 38.6236 0 13.827 
302 2 30.878 0 5.51701 
303 2 26.2506 0 7.98447 
304 2 39.8293 0 7.71374 
305 2 38.42 0 13.7556 
306 2 26.431 0 10.3318 
307 2 42.518 0 24.1908 
308 2 27.6435 0 22.4997 
309 2 38.7001 0 9.13481 
310 2 27.9254 0 17.0773 
311 2 25.9579 0 10.3081 
312 2 39.6336 0 10.2145 
313 2 34.87 0 8.06843 
314 2 25.2154 0 9.34613 
315 2 26.8678 0 5.75109 
316 2 35.6041 0 7.79652 
317 2 36.9442 0 6.75841 
318 2 35.5761 0 8.70535 
319 2 26.7242 0 13.2413 
320 2 24.3378 0 8.87476 
321 2 33.8442 0 12.8194 
322 2 37.0911 0 20.9956 
323 2 32.3504 0 11.2976 
324 2 33.9079 0 11.6716 
325 2 24.7275 0 11.8792 
326 2 34.5892 0 13.4365 
327 2 27.4176 0 17.9064 
328 2 31.5127 0 10.347 
329 2 27.863 0 6.17591 
330 2 27.3104 0 14.8638 
331 2 32.9735 0 7.88263 
332 2 42.3567 0 14.6119 
333 2 28.7836 0 6.89554 
334 2 36.1843 0 8.98666 
335 2 43.266 0 39.601 
336 2 29.2683 0 7.4037 
337 2 39.8408 0 9.92858 
338 2 35.7841 0 3.73521 
339 2 27.5868 0 7.8013 
340 2 40.1618 0 10.4387 
341 2 39.5765 0 12.0546 
342 2 37.1774 0 7.19928 
343 2 34.4651 0 6.47414 
344 2 36.9319 0 11.1557 
345 2 25.5083 0 6.22289 
346 2 23.5206 0 11.4415 
347 2 38.8336 0 8.84629 
348 2 21.9181 0 7.62717 
349 2 23.236 0 9.31187 
350 2 26.4807 0 12.5524 
351 2 36.1342 0 7.47515 
352 2 27.8847 0 8.76406 
353 2 36.7233 0 11.033 
354 2 24.0407 0 13.8901 
355 2 26.5865 0 8.27061 
356 2 25.2708 0 3.94426 
357 2 22.8821 0 7.73844 
358 2 33.1053 0 10.2247 
359 2 28.0078 0 8.9007 
360 2 34.364 0 7.90621 
361 2 23.0318 0 10.3442 
362 2 21.8161 0 11.1105 
363 2 30.003 0 8.93846 
364 2 37.8745 0 10.619 
365 2 22.5551 0 10.7744 
366 2 25.8806 0 12.0374 
367 2 35.0138 0 10.2522 
368 2 42.5587 0 9.11354 
369 2 42.9992 0 19.2958 
370 2 31.022 0 14.9075 
371 2 27.1071 0 12.6121 
372 2 31.6213 0 11.7596 
373 2 24.3189 0 17.0495 
374 2 33.6931 0 11.3825 
375 2 34.834 0 16.0227 
376 2 36.7519 0 3.96257 
377 2 24.4728 0 12.8919 
378 2 23.5301 0 14.5238 
379 2 42.1232 0 12.7231 
380 2 38.5313 0 7.35858 
381 2 36.4141 0 7.36876 
382 2 22.5721 0 15.6464 
383 2 34.0335 0 10.391 
384 2 29.8705 0 8.08119 
385 2 36.0026 0 13.5109 
386 2 25.2595 0 18.1972 
387 2 24.5013 0 12.6741 
388 2 35.3064 0 8.92253 
389 2 34.7074 0 9.77127 
390 2 22.9495 0 12.4168 
391 2 38.5929 0 14.4479 
392 2 43.063 0 21.708 
393 2 31.4924 0 5.89266 
394 2 25.5126 0 11.2948 
395 2 42.7945 0 16.8322 
396 2 24.4774 0 7.41497 
397 2 33.0557 0 15.3116 
398 2 29.8073 0 7.11088 
399 2 37.321 0 8.04609 
400 2 38.2946 0 7.65215 
401 2 30.2537 0 4.84517 
402 2 29.6662 0 12.373 
403 2 30.5289 0 8.36079 
404 2 30.962 0 7.4529 
405 2 24.0662 0 10.3009 
406 2 33.2676 0 7.13566 
407 2 27.0889 0 12.813 
408 2 30.1179 0 7.21209 
409 2 26.8518 0 8.66538 
410 2 21.8503 0 11.7469 
411 2 31.0407 0 9.50043 
412 2 24.6994 0 14.3732 
413 2 25.5078 0 8.04186 
414 2 29.3484 0 3.56733 
415 2 39.7667 0 33.9145 
416 2 28.9551 0 8.191 
417 2 22.7675 0 11.2615 
418 2 38.4867 0 20.2167 
419 2 42.0169 0 9.27916 
420 2 23.7183 0 10.0444 
421 2 32.5531 0 14.7139 
422 2 30.0208 0 4.64602 
423 2 31.2782 0 8.95743 
424 2 43.0643 0 14.3089 
425 2 33.1877 0 7.38111 
426 2 34.6648 0 7.47768 
427 2 26.8347 0 2.81355 
428 2 30.57 0 9.64197 
429 2 40.3046 0 6.88015 
430 2 25.0119 0 11.2673 
431 2 31.9747 0 7.3273 
432 2 39.5396 0 10.6721 
ITEM: TIMESTEP
10
ITEM: NUMBER OF ATOMS
432
ITEM: BOX BOUNDS xy xz yz pp pp pp
-7.2599999999999998e+00 5.4449999999999996e+01 0.0000000000000000e+00
0.0000000000000000e+00 1.0890000000000001e+01 0.0000000000000000e+00
0.0000000000000000e+00 1.0890000000000001e+01 0.0000000000000000e+00
ITEM: ATOMS id type x c_ptm[1] c_centro 
1 2 0 0 19.7653 
2 1 1.815 1 1.57772e-29 
3 1 1.815 1 1.57772e-29 
4 2 0 0 19.7653 
5 1 0 0 19.7653 
6 1 1.815 1 1.26218e-29 
7 1 1.815 1 1.57772e-29 
8 2 0 0 19.7653 
9 2 0 0 19.7653 
10 1 1.815 1 1.26218e-29 
11 1 1.815 1 1.57772e-29 
12 1 0 0 19.7653 
13 2 0 0 19.7653 
14 2 1.815 1 1.57772e-29 
15 2 1.815 1 1.26218e-29 
16 1 0 0 19.7653 
17 1 0 0 19.7653 
18 2 1.815 1 1.26218e-29 
19 2 1.815 1 1.26218e-29 
20 2 0 0 19.7653 
21 1 0 0 19.7653 
22 2 1.815 1 1.26218e-29 
23 1 1.815 1 1.26218e-29 
24 2 0 0 19.7653 
25 2 0 0 19.7653 
26 2 1.815 1 1.57772e-29 
27 2 1.815 1 1.26218e-29 
28 1 0 0 19.7653 
29 2 0 0 19.7653 
30 2 1.815 1 1.26218e-29 
31 1 1.815 1 1.26218e-29 
32 2 0 0 19.7653 
33 1 0 0 19.7653 
34 2 1.815 1 1.26218e-29 
35 1 1.815 1 1.26218e-29 
36 1 0 0 19.7653 
37 1 3.63 1 1.19907e-28 
38 2 5.445 1 5.36425e-29 
39 1 5.445 1 5.36425e-29 
40 1 3.63 1 1.13596e-28 
41 1 3.63 1 1.16751e-28 
42 2 5.445 1 5.04871e-29 
43 2 5.445 1 5.36425e-29 
44 1 3.63 1 1.13596e-28 
45 2 3.63 1 1.16751e-28 
46 1 5.445 1 5.04871e-29 
47 1 5.445 1 5.36425e-29 
48 2 3.63 1 1.13596e-28 
49 2 3.63 1 1.16751e-28 
50 1 5.445 1 5.36425e-29 
51 2 5.445 1 5.04871e-29 
52 1 3.63 1 1.13596e-28 
53 2 3.63 1 1.13596e-28 
54 2 5.445 1 5.04871e-29 
55 2 5.445 1 5.04871e-29 
56 2 3.63 1 1.13596e-28 
57 2 3.63 1 1.13596e-28 
58 2 5.445 1 5.04871e-29 
59 1 5.445 1 5.04871e-29 
60 1 3.63 1 1.13596e-28 
61 2 3.63 1 1.16751e-28 
62 1 5.445 1 5.36425e-29 
63 1 5.445 1 5.04871e-29 
64 2 3.63 1 1.13596e-28 
65 1 3.63 1 1.13596e-28 
66 1 5.445 1 5.04871e-29 
67 2 5.445 1 5.04871e-29 
68 2 3.63 1 1.13596e-28 
69 2 3.63 1 1.13596e-28 
70 1 5.445 1 5.04871e-29 
71 1 5.445 1 5.04871e-29 
72 2 3.63 1 1.13596e-28 
73 2 7.26 1 1.89327e-29 
74 2 9.075 1 5.36425e-29 
75 2 9.075 1 5.36425e-29 
76 1 7.26 1 1.26218e-29 
77 1 7.26 1 1.57772e-29 
78 2 9.075 1 5.04871e-29 
79 1 9.075 1 5.36425e-29 
80 1 7.26 1 1.26218e-29 
81 1 7.26 1 1.57772e-29 
82 2 9.075 1 5.04871e-29 
83 2 9.075 1 5.36425e-29 
84 2 7.26 1 1.26218e-29 
85 1 7.26 1 1.57772e-29 
86 1 9.075 1 5.36425e-29 
87 2 9.075 1 5.04871e-29 
88 1 7.26 1 1.26218e-29 
89 1 7.26 1 1.26218e-29 
90 1 9.075 1 5.04871e-29 
91 2 9.075 1 5.04871e-29 
92 2 7.26 1 1.26218e-29 
93 2 7.26 1 1.26218e-29 
94 1 9.075 1 5.04871e-29 
95 1 9.075 1 5.04871e-29 
96 2 7.26 1 1.26218e-29 
97 2 7.26 1 1.57772e-29 
98 1 9.075 1 5.36425e-29 
99 2 9.075 1 5.04871e-29 
100 1 7.26 1 1.26218e-29 
101 2 7.26 1 1.26218e-29 
102 2 9.075 1 5.04871e-29 
103 1 9.075 1 5.04871e-29 
104 1 7.26 1 1.26218e-29 
105 1 7.26 1 1.26218e-29 
106 1 9.075 1 5.04871e-29 
107 2 9.075 1 5.04871e-29 
108 2 7.26 1 1.26218e-29 
109 2 10.89 1 6.31089e-30 
110 2 12.705 1 3.15544e-30 
111 2 12.705 1 3.15544e-30 
112 1 10.89 1 0 
113 1 10.89 1 3.15544e-30 
114 1 12.705 1 0 
115 2 12.705 1 3.15544e-30 
116 2 10.89 1 0 
117 2 10.89 1 3.15544e-30 
118 2 12.705 1 0 
119 1 12.705 1 3.15544e-30 
120 1 10.89 1 0 
121 2 10.89 1 3.15544e-30 
122 1 12.705 1 3.15544e-30 
123 2 12.705 1 0 
124 1 10.89 1 0 
125 1 10.89 1 0 
126 2 12.705 1 0 
127 2 12.705 1 0 
128 2 10.89 1 0 
129 2 10.89 1 0 
130 2 12.705 1 0 
131 2 12.705 1 0 
132 2 10.89 1 0 
133 1 10.89 1 3.15544e-30 
134 2 12.705 1 3.15544e-30 
135 2 12.705 1 0 
136 1 10.89 1 0 
137 1 10.89 1 0 
138 2 12.705 1 0 
139 1 12.705 1 0 
140 2 10.89 1 0 
141 1 10.89 1 0 
142 1 12.705 1 0 
143 2 12.705 1 0 
144 1 10.89 1 0 
145 1 14.52 1 4.60695e-28 
146 2 16.335 1 2.05104e-28 
147 2 16.335 1 2.05104e-28 
148 2 14.52 1 4.54384e-28 
149 1 14.52 1 4.57539e-28 
150 2 16.335 1 2.01948e-28 
151 1 16.335 1 2.05104e-28 
152 1 14.52 1 4.54384e-28 
153 2 14.52 1 4.57539e-28 
154 1 16.335 1 2.01948e-28 
155 2 16.335 1 2.05104e-28 
156 2 14.52 1 4.54384e-28 
157 2 14.52 1 4.57539e-28 
158 1 16.335 1 2.05104e-28 
159 1 16.335 1 2.01948e-28 
160 2 14.52 1 4.54384e-28 
161 1 14.52 1 4.54384e-28 
162 1 16.335 1 2.01948e-28 
163 2 16.335 1 2.01948e-28 
164 2 14.52 1 4.54384e-28 
165 1 14.52 1 4.54384e-28 
166 2 16.335 1 2.01948e-28 
167 1 16.335 1 2.01948e-28 
168 1 14.52 1 4.54384e-28 
169 2 14.52 1 4.57539e-28 
170 1 16.335 1 2.05104e-28 
171 2 16.335 1 2.01948e-28 
172 2 14.52 1 4.54384e-28 
173 1 14.52 1 4.54384e-28 
174 2 16.335 1 2.01948e-28 
175 1 16.335 1 2.01948e-28 
176 2 14.52 1 4.54384e-28 
177 1 14.52 1 4.54384e-28 
178 2 16.335 1 2.01948e-28 
179 2 16.335 1 2.01948e-28 
180 2 14.52 1 4.54384e-28 
181 2 18.15 1 2.08259e-28 
182 2 19.965 0 6.86894 
183 1 19.965 0 7.96033 
184 1 18.15 1 2.01948e-28 
185 2 18.15 1 2.05104e-28 
186 1 19.965 0 11.2966 
187 1 19.965 0 13.0347 
188 1 18.15 1 2.01948e-28 
189 1 18.15 1 2.05104e-28 
190 2 19.965 0 8.59582 
191 1 19.965 0 8.13836 
192 2 18.15 1 2.01948e-28 
193 1 18.15 1 2.05104e-28 
194 1 19.965 0 13.1769 
195 1 19.965 0 8.13461 
196 2 18.15 1 2.01948e-28 
197 1 18.15 1 2.01948e-28 
198 1 19.965 0 8.05943 
199 2 19.965 0 5.53145 
200 1 18.15 1 2.01948e-28 
201 1 18.15 1 2.01948e-28 
202 1 19.965 0 3.87991 
203 1 19.965 0 7.13779 
204 2 18.15 1 2.01948e-28 
205 2 18.15 1 2.05104e-28 
206 2 19.965 0 9.23186 
207 1 19.965 0 12.1443 
208 2 18.15 1 2.01948e-28 
209 2 18.15 1 2.01948e-28 
210 2 19.965 0 12.7068 
211 2 19.965 0 3.63482 
212 2 18.15 1 2.01948e-28 
213 1 18.15 1 2.01948e-28 
214 2 19.965 0 7.83341 
215 1 19.965 0 12.4038 
216 1 18.15 1 2.01948e-28 
217 2 21.7932 0 7.32899 
218 2 31.9453 0 7.60697 
219 2 22.3517 0 9.62614 
220 2 42.3852 0 15.2825 
221 2 39.931 0 11.4061 
222 2 33.1497 0 11.1276 
223 2 30.2245 0 7.48576 
224 2 36.6512 0 10.5563 
225 2 39.8236 0 10.3554 
226 2 35.8828 0 9.60485 
227 2 41.5763 0 10.2829 
228 2 22.7972 0 16.7753 
229 2 36.0246 0 6.09943 
230 2 29.2789 0 8.61713 
231 2 38.1485 0 6.25363 
232 2 23.3282 0 13.417 
233 2 27.7072 0 13.2623 
234 2 32.1957 0 9.6519 
235 2 29.3913 0 7.33983 
236 2 41.3651 0 27.15 
237 2 41.9251 0 21.8817 
238 2 28.8444 0 5.99498 
239 2 27.5784 0 14.3668 
240 2 23.8317 0 12.9567 
241 2 27.5953 0 7.61549 
242 2 31.9999 0 3.84038 
243 2 38.2511 0 8.60685 
244 2 23.778 0 7.04769 
245 2 40.7793 0 20.3571 
246 2 37.8788 0 12.4445 
247 2 26.6126 0 10.3438 
248 2 32.7846 0 10.5717 
249 2 30.6414 0 11.9054 
250 2 31.0996 0 6.93531 
251 2 28.1314 0 7.73998 
252 2 33.8455 0 5.72853 
253 2 33.4527 0 10.1138 
254 2 38.6925 0 13.0834 
255 2 35.3819 0 5.43645 
256 2 26.4188 0 15.1335 
257 2 23.7117 0 11.576 
258 2 30.4058 0 10.3747 
259 2 42.429 0 7.30163 
260 2 28.8329 0 6.39075 
261 2 25.056 0 7.48497 
262 2 30.132 0 18.4101 
263 2 34.5636 0 6.91794 
264 2 42.8823 0 14.8372 
265 2 43.9204 0 27.0302 
266 2 34.0447 0 13.462 
267 2 31.9904 0 9.066 
268 2 26.2391 0 10.4451 
269 2 24.7494 0 10.0484 
270 2 39.0306 0 10.8219 
271 2 30.0603 0 11.0399 
272 2 40.9531 0 10.3775 
273 2 42.1587 0 7.21679 
274 2 41.2483 0 8.26018 
275 2 23.3521 0 6.71837 
276 2 24.9052 0 5.53907 
277 2 29.4382 0 10.4925 
278 2 42.1136 0 8.6756 
279 2 36.6564 0 8.68434 
280 2 39.9077 0 6.94237 
281 2 34.824 0 6.56674 
282 2 31.8878 0 7.84535 
283 2 31.2033 0 5.50932 
284 2 36.8507 0 13.5036 
285 2 40.4923 0 17.6231 
286 2 32.9718 0 7.59331 
287 2 34.2559 0 7.65078 
288 2 37.1102 0 11.1171 
289 2 39.2252 0 8.37396 
290 2 22.0674 0 10.7028 
291 2 31.9777 0 6.03294 
292 2 32.2617 0 9.6418 
293 2 26.1414 0 6.28667 
294 2 41.1881 0 8.84779 
295 2 31.4734 0 8.95871 
296 2 31.5035 0 7.71975 
297 2 41.1261 0 9.46588 
298 2 39.3445 0 13.3905 
299 2 44.0404 0 70.7218 
300 2 35.1006 0 9.44532 
301 2 38.6155 0 17.2675 
302 2 30.6803 0 6.62487 
303 2 25.9646 0 11.6455 
304 2 39.7197 0 14.519 
305 2 38.3965 0 9.11142 
306 2 26.3047 0 11.989 
307 2 42.5123 0 18.6357 
308 2 28.3317 0 9.86077 
309 2 38.4169 0 7.37978 
310 2 27.9249 0 12.5289 
311 2 26.3567 0 9.75864 
312 2 39.8691 0 4.25794 
313 2 34.762 0 9.58852 
314 2 24.5533 0 10.027 
315 2 26.8038 0 8.05895 
316 2 35.2373 0 3.79973 
317 2 36.1771 0 6.69182 
318 2 35.7855 0 9.6057 
319 2 27.0966 0 8.20614 
320 2 24.075 0 7.3685 
321 2 33.5769 0 9.20677 
322 2 37.0932 0 12.777 
323 2 32.4855 0 9.34463 
324 2 33.3029 0 9.53209 
325 2 24.914 0 10.4555 
326 2 34.6696 0 12.57 
327 2 27.655 0 8.81257 
328 2 31.8493 0 9.0009 
329 2 28.047 0 5.45805 
330 2 27.4008 0 7.28312 
331 2 33.2253 0 5.76827 
332 2 42.1415 0 12.4502 
333 2 28.4294 0 8.50592 
334 2 36.2465 0 10.4695 
335 2 42.7581 0 21.332 
336 2 28.9185 0 5.88894 
337 2 39.8867 0 9.20958 
338 2 35.373 0 7.26716 
339 2 27.787 0 11.9104 
340 2 40.4343 0 7.62281 
341 2 39.2845 0 10.4501 
342 2 37.019 0 6.37213 
343 2 34.4607 0 6.63531 
344 2 37.0933 0 14.1058 
345 2 25.787 0 8.17678 
346 2 23.6154 0 10.0519 
347 2 39.0919 0 6.02957 
348 2 21.8233 0 11.3143 
349 2 23.019 0 12.0215 
350 2 27.0867 0 7.74355 
351 2 36.0956 0 7.5466 
352 2 27.9841 0 8.86093 
353 2 36.7248 0 11.8689 
354 2 24.782 0 9.72397 
355 2 26.5095 0 8.69188 
356 2 25.2412 0 7.8499 
357 2 22.5142 0 6.79812 
358 2 33.1114 0 9.52053 
359 2 27.8984 0 15.278 
360 2 34.9024 0 10.5974 
361 2 23.0361 0 10.2275 
362 2 21.8632 0 11.6296 
363 2 30.2907 0 5.70019 
364 2 37.9652 0 9.19664 
365 2 22.3338 0 8.90783 
366 2 24.7401 0 11.9451 
367 2 34.8406 0 10.8546 
368 2 42.5737 0 8.70085 
369 2 43.5103 0 19.5537 
370 2 30.9492 0 17.3645 
371 2 26.988 0 9.7732 
372 2 31.2594 0 8.41956 
373 2 24.4015 0 10.163 
374 2 33.7465 0 12.5654 
375 2 34.8911 0 13.7899 
376 2 36.7687 0 8.23006 
377 2 24.4689 0 6.15923 
378 2 22.8254 0 10.7897 
379 2 42.0344 0 10.4781 
380 2 38.5523 0 8.40672 
381 2 36.7334 0 4.51364 
382 2 22.5088 0 12.3485 
383 2 34.0907 0 8.51496 
384 2 29.1855 0 8.46287 
385 2 36.0578 0 12.9003 
386 2 25.8935 0 15.2159 
387 2 24.2836 0 10.3878 
388 2 35.4106 0 9.37726 
389 2 34.6169 0 6.41859 
390 2 23.0357 0 13.4608 
391 2 38.4589 0 10.3493 
392 2 43.0598 0 16.6578 
393 2 31.58 0 8.97508 
394 2 25.5268 0 11.4338 
395 2 42.9773 0 19.8886 
396 2 24.4021 0 6.29168 
397 2 33.0133 0 10.8861 
398 2 29.5666 0 6.74212 
399 2 37.1776 0 5.86497 
400 2 38.7772 0 9.49978 
401 2 30.1985 0 5.77253 
402 2 29.6414 0 9.35994 
403 2 30.8685 0 7.10608 
404 2 30.8904 0 6.5661 
405 2 24.1694 0 13.8627 
406 2 33.4362 0 7.02198 
407 2 26.5467 0 8.86446 
408 2 30.3832 0 8.92127 
409 2 26.7426 0 9.44216 
410 2 21.8656 0 8.20093 
411 2 31.4685 0 6.58812 
412 2 24.6931 0 12.6697 
413 2 25.5044 0 13.8578 
414 2 29.3145 0 8.88769 
415 2 40.03 0 21.0544 
416 2 29.2237 0 6.11279 
417 2 22.762 0 12.4023 
418 2 38.4013 0 8.46654 
419 2 41.2443 0 6.93842 
420 2 23.9939 0 10.8089 
421 2 32.9127 0 10.8387 
422 2 30.6543 0 12.2156 
423 2 31.2909 0 12.6636 
424 2 43.36 0 19.4277 
425 2 33.4577 0 7.41737 
426 2 34.9433 0 5.632 
427 2 26.8226 0 5.80939 
428 2 30.468 0 13.3739 
429 2 40.2957 0 4.73173 
430 2 25.1096 0 6.72243 
431 2 32.2185 0 5.14593 
432 2 39.3478 0 7.44302 
ITEM: TIMESTEP
20
ITEM: NUMBER OF ATOMS
432
ITEM: BOX BOUNDS xy xz yz pp pp pp
-7.2599999999999998e+00 5.4449999999999996e+01 0.0000000000000000e+00
0.0000000000000000e+00 1.0890000000000001e+01 0.0000000000000000e+00
0.0000000000000000e+00 1.0890000000000001e+01 0.0000000000000000e+00
ITEM: ATOMS id type x c_ptm[1] c_centro 
1 2 0 0 19.7653 
2 1 1.815 1 0.00420858 
3 1 1.815 1 0.00708773 
4 2 0 0 13.1769 
5 1 0 0 13.1769 
6 1 1.815 1 0.00783962 
7 1 1.815 1 0.00826944 
8 2 0 0 19.7653 
9 2 0 0 13.1769 
10 1 1.815 1 0.00595161 
11 1 1.815 1 0.00478229 
12 1 0 0 13.1769 
13 2 0 0 19.7653 
14 2 1.815 1 0.00854381 
15 2 1.815 1 0.00797035 
16 1 0 0 19.7653 
17 1 0 0 19.7653 
18 2 1.815 1 0.0107532 
19 2 1.815 1 0.0105463 
20 2 0 0 13.1769 
21 1 0 0 19.7653 
22 2 1.815 1 0.0100652 
23 1 1.815 1 0.00857998 
24 2 0 0 19.7653 
25 2 0 0 19.7653 
26 2 1.815 1 0.00734548 
27 2 1.815 1 0.00872163 
28 1 0 0 13.1769 
29 2 0 0 19.7653 
30 2 1.815 1 0.0110756 
31 1 1.815 1 0.00968168 
32 2 0 0 13.1769 
33 1 0 0 19.7653 
34 2 1.815 1 0.00747256 
35 1 1.815 1 0.00761621 
36 1 0 0 19.7653 
37 1 3.6028 1 0.0391658 
38 2 5.4451 1 0.00423626 
39 1 5.44558 1 0.00689569 
40 1 3.64822 1 0.031387 
41 1 3.63495 1 0.0777806 
42 2 5.4449 1 0.0077912 
43 2 5.44411 1 0.00854582 
44 1 3.6275 1 0.0230899 
45 2 3.65754 1 0.0537928 
46 1 5.44578 1 0.00595846 
47 1 5.44564 1 0.00480978 
48 2 3.64332 1 0.026804 
49 2 3.60668 1 0.0459832 
50 1 5.44463 1 0.00815029 
51 2 5.44394 1 0.00780286 
52 1 3.6081 1 0.0377172 
53 2 3.56812 1 0.120445 
54 2 5.44486 1 0.0107748 
55 2 5.44452 1 0.0103435 
56 2 3.66748 1 0.108397 
57 2 3.5977 1 0.0834447 
58 2 5.44484 1 0.0103966 
59 1 5.4445 1 0.00859717 
60 1 3.58691 1 0.0782232 
61 2 3.59531 1 0.045547 
62 1 5.44433 1 0.00701549 
63 1 5.44517 1 0.00888437 
64 2 3.65343 1 0.101837 
65 1 3.60469 1 0.0743365 
66 1 5.44586 1 0.0107173 
67 2 5.44476 1 0.00965431 
68 2 3.68476 1 0.0978983 
69 2 3.61947 1 0.0290779 
70 1 5.44546 1 0.00729939 
71 1 5.44561 1 0.00801827 
72 2 3.60484 1 0.03077 
73 2 7.26115 1 7.70924e-05 
74 2 9.07473 1 4.66265e-05 
75 2 9.07501 1 2.97006e-05 
76 1 7.25944 1 1.56969e-05 
77 1 7.25946 1 6.52542e-05 
78 2 9.0749 1 1.31214e-05 
79 1 9.07384 1 4.53922e-05 
80 1 7.26057 1 2.96589e-05 
81 1 7.2596 1 2.34643e-05 
82 2 9.07554 1 1.96386e-05 
83 2 9.07414 1 5.81822e-05 
84 2 7.26034 1 4.20483e-05 
85 1 7.2599 1 2.96331e-05 
86 1 9.0746 1 2.66054e-05 
87 2 9.07534 1 2.72678e-05 
88 1 7.2603 1 2.25129e-05 
89 1 7.25977 1 2.02855e-05 
90 1 9.07525 1 3.88072e-05 
91 2 9.07543 1 2.99396e-05 
92 2 7.25874 1 4.66845e-05 
93 2 7.26003 1 1.90304e-05 
94 1 9.07492 1 2.07464e-05 
95 1 9.07537 1 2.31492e-05 
96 2 7.26044 1 2.99101e-05 
97 2 7.26074 1 4.24838e-05 
98 1 9.07576 1 6.01411e-05 
99 2 9.07401 1 3.03162e-05 
100 1 7.25844 1 8.93406e-05 
101 2 7.26035 1 2.53561e-05 
102 2 9.07509 1 2.63659e-05 
103 1 9.07418 1 3.79238e-05 
104 1 7.26047 1 4.95877e-05 
105 1 7.25987 1 1.81025e-05 
106 1 9.07446 1 6.01423e-05 
107 2 9.07416 1 5.23685e-05 
108 2 7.26077 1 5.9063e-05 
109 2 10.8894 1 3.30261e-05 
110 2 12.7055 1 4.49369e-05 
111 2 12.7053 1 3.69239e-05 
112 1 10.8904 1 9.63314e-05 
113 1 10.8897 1 1.37775e-05 
114 1 12.705 1 5.4686e-06 
115 2 12.7044 1 3.86182e-05 
116 2 10.8898 1 5.49545e-05 
117 2 10.8901 1 5.56377e-05 
118 2 12.7043 1 2.29015e-05 
119 1 12.7047 1 1.78853e-05 
120 1 10.8897 1 1.8202e-05 
121 2 10.8906 1 2.50383e-05 
122 1 12.7044 1 2.85347e-05 
123 2 12.7056 1 4.15471e-05 
124 1 10.8899 1 1.04001e-05 
125 1 10.8899 1 4.37409e-05 
126 2 12.7054 1 1.24007e-05 
127 2 12.7043 1 7.31241e-05 
128 2 10.891 1 9.3513e-05 
129 2 10.8906 1 4.01736e-05 
130 2 12.7044 1 5.10726e-05 
131 2 12.7046 1 1.30788e-05 
132 2 10.8904 1 3.04299e-05 
133 1 10.8893 1 1.59318e-05 
134 2 12.7057 1 4.06114e-05 
135 2 12.7062 1 6.55087e-05 
136 1 10.8896 1 3.44093e-05 
137 1 10.8887 1 6.14866e-05 
138 2 12.7051 1 1.16169e-05 
139 1 12.7048 1 1.88353e-05 
140 2 10.8905 1 5.45955e-05 
141 1 10.8895 1 5.32513e-05 
142 1 12.7052 1 3.10348e-05 
143 2 12.7053 1 2.81542e-05 
144 1 10.8894 1 9.07092e-05 
145 1 14.52 1 3.15426e-05 
146 2 16.3346 1 2.49206e-05 
147 2 16.3352 1 2.13572e-05 
148 2 14.5202 1 4.72199e-05 
149 1 14.5209 1 0.000125129 
150 2 16.335 1 4.44985e-05 
151 1 16.3341 1 0.000126189 
152 1 14.5202 1 3.11179e-05 
153 2 14.5199 1 2.24457e-05 
154 1 16.3354 1 4.99336e-05 
155 2 16.3346 1 1.45913e-05 
156 2 14.5202 1 3.74086e-05 
157 2 14.5189 1 8.59491e-05 
158 1 16.3353 1 0.000141978 
159 1 16.335 1 8.21329e-05 
160 2 14.5195 1 3.37313e-05 
161 1 14.5209 1 4.721e-05 
162 1 16.3342 1 9.86301e-05 
163 2 16.3347 1 2.02311e-05 
164 2 14.5194 1 3.1311e-05 
165 1 14.5206 1 4.85574e-05 
166 2 16.3348 1 1.36548e-05 
167 1 16.3347 1 6.47194e-05 
168 1 14.5206 1 3.09234e-05 
169 2 14.5198 1 2.50164e-05 
170 1 16.3347 1 2.55317e-05 
171 2 16.3352 1 2.4094e-05 
172 2 14.5195 1 3.91112e-05 
173 1 14.5206 1 3.06743e-05 
174 2 16.3357 1 3.89814e-05 
175 1 16.3357 1 0.000105757 
176 2 14.5199 1 3.33455e-05 
177 1 14.5199 1 3.01727e-05 
178 2 16.3342 1 2.7608e-05 
179 2 16.3347 1 1.15076e-05 
180 2 14.5204 1 1.42457e-05 
181 2 18.1496 1 0.000968408 
182 2 19.9534 0 4.80868 
183 1 19.9693 0 6.7362 
184 1 18.1502 1 0.000225128 
185 2 18.15 1 0.00013815 
186 1 19.9673 0 8.18675 
187 1 19.9673 0 9.67018 
188 1 18.1504 1 0.000525394 
189 1 18.1491 1 0.000441784 
190 2 19.9463 0 5.40598 
191 1 19.9627 0 6.8079 
192 2 18.1501 1 0.000820484 
193 1 18.1502 1 0.000366255 
194 1 19.9688 0 11.3027 
195 1 19.9686 0 8.6341 
196 2 18.1505 1 0.000205852 
197 1 18.1505 1 0.000136008 
198 1 19.9581 0 6.51583 
199 2 19.9686 0 4.95776 
200 1 18.1489 1 0.00274362 
201 1 18.1495 1 0.000562297 
202 1 19.9611 0 4.70821 
203 1 19.956 0 5.87517 
204 2 18.1497 1 0.000209875 
205 2 18.1498 1 0.000779719 
206 2 19.9388 0 6.76279 
207 1 19.9689 0 10.1878 
208 2 18.1498 1 0.000798111 
209 2 18.15 1 0.0027675 
210 2 19.9686 0 4.23015 
211 2 19.9184 0 3.77737 
212 2 18.1503 1 0.00296698 
213 1 18.1501 1 0.00294758 
214 2 19.9675 0 6.0511 
215 1 19.9672 0 7.84873 
216 1 18.1501 1 0.000841045 
217 2 21.7084 0 5.89502 
218 2 32.4795 0 8.67778 
219 2 21.1591 0 10.9131 
220 2 42.7408 0 14.3055 
221 2 39.9728 0 8.8454 
222 2 32.5696 0 8.62054 
223 2 30.3045 0 6.70984 
224 2 36.606 0 12.4521 
225 2 39.2592 0 9.8701 
226 2 35.4325 0 11.5933 
227 2 41.5408 0 6.98161 
228 2 22.4402 0 8.56436 
229 2 37.3383 0 18.2964 
230 2 28.2443 0 9.08565 
231 2 39.3753 0 11.4707 
232 2 23.1303 0 13.3301 
233 2 27.6795 0 9.72344 
234 2 32.2423 0 7.96943 
235 2 28.7564 0 7.40089 
236 2 41.4374 0 16.2571 
237 2 42.4669 0 40.3818 
238 2 29.1922 0 4.43599 
239 2 27.6063 0 8.29841 
240 2 25.1473 0 14.5581 
241 2 26.9234 0 6.01819 
242 2 32.3603 0 8.44876 
243 2 37.9143 0 16.9036 
244 2 22.2263 0 10.8175 
245 2 40.9447 0 13.0325 
246 2 38.6864 0 12.5043 
247 2 25.9389 0 13.9877 
248 2 32.3286 0 9.83574 
249 2 30.2823 0 6.58993 
250 2 31.8676 0 9.4711 
251 2 28.484 0 21.9195 
252 2 32.7344 0 6.98603 
253 2 33.5477 0 6.60076 
254 2 40.2591 0 5.80856 
255 2 35.3938 0 13.0726 
256 2 26.4682 0 17.0044 
257 2 23.4442 0 12.8247 
258 2 29.2888 0 7.48626 
259 2 42.4851 0 13.6199 
260 2 29.1497 0 11.8829 
261 2 25.1006 0 14.6394 
262 2 29.8238 0 9.52214 
263 2 34.5425 0 9.3598 
264 2 43.3606 0 24.9513 
265 2 44.8969 0 47.8295 
266 2 33.8803 0 12.8343 
267 2 32.3107 0 6.39639 
268 2 26.4251 0 12.6679 
269 2 25.4664 0 20.5125 
270 2 38.6544 0 9.67925 
271 2 29.467 0 6.14819 
272 2 40.1654 0 10.7574 
273 2 41.9857 0 10.3454 
274 2 41.4857 0 13.1837 
275 2 22.9722 0 16.4928 
276 2 25.5461 0 8.35632 
277 2 29.5901 0 6.78821 
278 2 42.2026 0 8.82264 
279 2 36.9266 0 5.18306 
280 2 39.283 0 12.8291 
281 2 34.7316 0 7.51238 
282 2 32.1409 0 10.5846 
283 2 30.7828 0 6.50696 
284 2 36.3743 0 16.9545 
285 2 40.7426 0 18.4371 
286 2 32.9306 0 5.61133 
287 2 33.9649 0 7.0011 
288 2 35.7191 0 9.58324 
289 2 39.2269 0 7.77627 
290 2 21.5467 0 8.66355 
291 2 32.2325 0 11.4579 
292 2 31.881 0 11.8777 
293 2 26.1911 0 8.4167 
294 2 41.1663 0 9.32895 
295 2 31.3063 0 15.5014 
296 2 31.5548 0 6.28624 
297 2 41.2575 0 7.72851 