CuNi atom datafile for lammps scripts 

4860 atoms
2 atom types
0.0 54.449999999999996 xlo xhi
0.0 32.67 ylo yhi
0.0 32.67 zlo zhi
0.0 0.0 0.0 xy xz yz

Atoms

1 1 0.0 0.0 0.0
2 1 1.815 1.815 0.0
3 1 1.815 0.0 1.815
4 1 0.0 1.815 1.815
5 2 0.0 0.0 3.63
6 1 1.815 1.815 3.63
7 1 1.815 0.0 5.445
8 1 0.0 1.815 5.445
9 2 0.0 0.0 7.26
10 2 1.815 1.815 7.26
11 1 1.815 0.0 9.075
12 2 0.0 1.815 9.075
13 1 0.0 0.0 10.89
14 1 1.815 1.815 10.89
15 1 1.815 0.0 12.705
16 2 0.0 1.815 12.705
17 1 0.0 0.0 14.52
18 2 1.815 1.815 14.52
19 2 1.815 0.0 16.335
20 2 0.0 1.815 16.335
21 2 0.0 0.0 18.15
22 1 1.815 1.815 18.15
23 1 1.815 0.0 19.965
24 2 0.0 1.815 19.965
25 2 0.0 0.0 21.78
26 2 1.815 1.815 21.78
27 2 1.815 0.0 23.595000000000002
28 2 0.0 1.815 23.595000000000002
29 2 0.0 0.0 25.41
30 1 1.815 1.815 25.41
31 2 1.815 0.0 27.225
32 2 0.0 1.815 27.225
33 1 0.0 0.0 29.04
34 2 1.815 1.815 29.04
35 1 1.815 0.0 30.855
36 2 0.0 1.815 30.855
37 2 0.0 3.63 0.0
38 2 1.815 5.445 0.0
39 1 1.815 3.63 1.815
40 1 0.0 5.445 1.815
41 1 0.0 3.63 3.63
42 1 1.815 5.445 3.63
43 2 1.815 3.63 5.445
44 2 0.0 5.445 5.445
45 2 0.0 3.63 7.26
46 2 1.815 5.445 7.26
47 1 1.815 3.63 9.075
48 2 0.0 5.445 9.075
49 2 0.0 3.63 10.89
50 1 1.815 5.445 10.89
51 1 1.815 3.63 12.705
52 1 0.0 5.445 12.705
53 1 0.0 3.63 14.52
54 2 1.815 5.445 14.52
55 1 1.815 3.63 16.335
56 2 0.0 5.445 16.335
57 1 0.0 3.63 18.15
58 1 1.815 5.445 18.15
59 1 1.815 3.63 19.965
60 2 0.0 5.445 19.965
61 2 0.0 3.63 21.78
62 2 1.815 5.445 21.78
63 1 1.815 3.63 23.595000000000002
64 1 0.0 5.445 23.595000000000002
65 2 0.0 3.63 25.41
66 1 1.815 5.445 25.41
67 2 1.815 3.63 27.225
68 1 0.0 5.445 27.225
69 1 0.0 3.63 29.04
70 2 1.815 5.445 29.04
71 2 1.815 3.63 30.855
72 1 0.0 5.445 30.855
73 2 0.0 7.26 0.0
74 1 1.815 9.075 0.0
75 2 1.815 7.26 1.815
76 1 0.0 9.075 1.815
77 1 0.0 7.26 3.63
78 1 1.815 9.075 3.63
79 1 1.815 7.26 5.445
80 1 0.0 9.075 5.445
81 1 0.0 7.26 7.26
82 1 1.815 9.075 7.26
83 1 1.815 7.26 9.075
84 2 0.0 9.075 9.075
85 2 0.0 7.26 10.89
86 1 1.815 9.075 10.89
87 2 1.815 7.26 12.705
88 2 0.0 9.075 12.705
89 1 0.0 7.26 14.52
90 2 1.815 9.075 14.52
91 1 1.815 7.26 16.335
92 1 0.0 9.075 16.335
93 1 0.0 7.26 18.15
94 2 1.815 9.075 18.15
95 2 1.815 7.26 19.965
96 2 0.0 9.075 19.965
97 1 0.0 7.26 21.78
98 2 1.815 9.075 21.78
99 1 1.815 7.26 23.595000000000002
100 2 0.0 9.075 23.595000000000002
101 1 0.0 7.26 25.41
102 2 1.815 9.075 25.41
103 1 1.815 7.26 27.225
104 1 0.0 9.075 27.225
105 1 0.0 7.26 29.04
106 1 1.815 9.075 29.04
107 1 1.815 7.26 30.855
108 1 0.0 9.075 30.855
109 2 0.0 10.89 0.0
110 2 1.815 12.705 0.0
111 1 1.815 10.89 1.815
112 1 0.0 12.705 1.815
113 1 0.0 10.89 3.63
114 1 1.815 12.705 3.63
115 2 1.815 10.89 5.445
116 2 0.0 12.705 5.445
117 2 0.0 10.89 7.26
118 1 1.815 12.705 7.26
119 2 1.815 10.89 9.075
120 2 0.0 12.705 9.075
121 1 0.0 10.89 10.89
122 2 1.815 12.705 10.89
123 2 1.815 10.89 12.705
124 1 0.0 12.705 12.705
125 1 0.0 10.89 14.52
126 1 1.815 12.705 14.52
127 2 1.815 10.89 16.335
128 2 0.0 12.705 16.335
129 2 0.0 10.89 18.15
130 1 1.815 12.705 18.15
131 1 1.815 10.89 19.965
132 2 0.0 12.705 19.965
133 1 0.0 10.89 21.78
134 1 1.815 12.705 21.78
135 2 1.815 10.89 23.595000000000002
136 2 0.0 12.705 23.595000000000002
137 2 0.0 10.89 25.41
138 2 1.815 12.705 25.41
139 1 1.815 10.89 27.225
140 2 0.0 12.705 27.225
141 1 0.0 10.89 29.04
142 1 1.815 12.705 29.04
143 2 1.815 10.89 30.855
144 2 0.0 12.705 30.855
145 1 0.0 14.52 0.0
146 2 1.815 16.335 0.0
147 2 1.815 14.52 1.815
148 1 0.0 16.335 1.815
149 1 0.0 14.52 3.63
150 1 1.815 16.335 3.63
151 2 1.815 14.52 5.445
152 2 0.0 16.335 5.445
153 2 0.0 14.52 7.26
154 2 1.815 16.335 7.26
155 1 1.815 14.52 9.075
156 2 0.0 16.335 9.075
157 1 0.0 14.52 10.89
158 1 1.815 16.335 10.89
159 1 1.815 14.52 12.705
160 2 0.0 16.335 12.705
161 2 0.0 14.52 14.52
162 2 1.815 16.335 14.52
163 2 1.815 14.52 16.335
164 1 0.0 16.335 16.335
165 2 0.0 14.52 18.15
166 2 1.815 16.335 18.15
167 2 1.815 14.52 19.965
168 2 0.0 16.335 19.965
169 2 0.0 14.52 21.78
170 2 1.815 16.335 21.78
171 2 1.815 14.52 23.595000000000002
172 2 0.0 16.335 23.595000000000002
173 1 0.0 14.52 25.41
174 1 1.815 16.335 25.41
175 2 1.815 14.52 27.225
176 2 0.0 16.335 27.225
177 2 0.0 14.52 29.04
178 1 1.815 16.335 29.04
179 2 1.815 14.52 30.855
180 1 0.0 16.335 30.855
181 1 0.0 18.15 0.0
182 2 1.815 19.965 0.0
183 1 1.815 18.15 1.815
184 1 0.0 19.965 1.815
185 1 0.0 18.15 3.63
186 2 1.815 19.965 3.63
187 1 1.815 18.15 5.445
188 2 0.0 19.965 5.445
189 2 0.0 18.15 7.26
190 2 1.815 19.965 7.26
191 2 1.815 18.15 9.075
192 2 0.0 19.965 9.075
193 2 0.0 18.15 10.89
194 1 1.815 19.965 10.89
195 1 1.815 18.15 12.705
196 1 0.0 19.965 12.705
197 1 0.0 18.15 14.52
198 1 1.815 19.965 14.52
199 2 1.815 18.15 16.335
200 1 0.0 19.965 16.335
201 1 0.0 18.15 18.15
202 1 1.815 19.965 18.15
203 1 1.815 18.15 19.965
204 1 0.0 19.965 19.965
205 1 0.0 18.15 21.78
206 1 1.815 19.965 21.78
207 2 1.815 18.15 23.595000000000002
208 2 0.0 19.965 23.595000000000002
209 1 0.0 18.15 25.41
210 1 1.815 19.965 25.41
211 2 1.815 18.15 27.225
212 1 0.0 19.965 27.225
213 2 0.0 18.15 29.04
214 2 1.815 19.965 29.04
215 1 1.815 18.15 30.855
216 2 0.0 19.965 30.855
217 1 0.0 21.78 0.0
218 2 1.815 23.595000000000002 0.0
219 1 1.815 21.78 1.815
220 1 0.0 23.595000000000002 1.815
221 2 0.0 21.78 3.63
222 1 1.815 23.595000000000002 3.63
223 2 1.815 21.78 5.445
224 1 0.0 23.595000000000002 5.445
225 1 0.0 21.78 7.26
226 2 1.815 23.595000000000002 7.26
227 2 1.815 21.78 9.075
228 1 0.0 23.595000000000002 9.075
229 2 0.0 21.78 10.89
230 1 1.815 23.595000000000002 10.89
231 1 1.815 21.78 12.705
232 1 0.0 23.595000000000002 12.705
233 2 0.0 21.78 14.52
234 2 1.815 23.595000000000002 14.52
235 1 1.815 21.78 16.335
236 1 0.0 23.595000000000002 16.335
237 1 0.0 21.78 18.15
238 2 1.815 23.595000000000002 18.15
239 2 1.815 21.78 19.965
240 2 0.0 23.595000000000002 19.965
241 1 0.0 21.78 21.78
242 1 1.815 23.595000000000002 21.78
243 1 1.815 21.78 23.595000000000002
244 1 0.0 23.595000000000002 23.595000000000002
245 2 0.0 21.78 25.41
246 2 1.815 23.595000000000002 25.41
247 2 1.815 21.78 27.225
248 2 0.0 23.595000000000002 27.225
249 2 0.0 21.78 29.04
250 2 1.815 23.595000000000002 29.04
251 1 1.815 21.78 30.855
252 1 0.0 23.595000000000002 30.855
253 2 0.0 25.41 0.0
254 1 1.815 27.225 0.0
255 2 1.815 25.41 1.815
256 1 0.0 27.225 1.815
257 2 0.0 25.41 3.63
258 1 1.815 27.225 3.63
259 1 1.815 25.41 5.445
260 1 0.0 27.225 5.445
261 2 0.0 25.41 7.26
262 1 1.815 27.225 7.26
263 2 1.815 25.41 9.075
264 1 0.0 27.225 9.075
265 1 0.0 25.41 10.89
266 1 1.815 27.225 10.89
267 1 1.815 25.41 12.705
268 2 0.0 27.225 12.705
269 2 0.0 25.41 14.52
270 2 1.815 27.225 14.52
271 1 1.815 25.41 16.335
272 2 0.0 27.225 16.335
273 1 0.0 25.41 18.15
274 2 1.815 27.225 18.15
275 2 1.815 25.41 19.965
276 1 0.0 27.225 19.965
277 1 0.0 25.41 21.78
278 1 1.815 27.225 21.78
279 1 1.815 25.41 23.595000000000002
280 2 0.0 27.225 23.595000000000002
281 2 0.0 25.41 25.41
282 1 1.815 27.225 25.41
283 1 1.815 25.41 27.225
284 2 0.0 27.225 27.225
285 1 0.0 25.41 29.04
286 2 1.815 27.225 29.04
287 2 1.815 25.41 30.855
288 2 0.0 27.225 30.855
289 2 0.0 29.04 0.0
290 2 1.815 30.855 0.0
291 2 1.815 29.04 1.815
292 1 0.0 30.855 1.815
293 2 0.0 29.04 3.63
294 2 1.815 30.855 3.63
295 1 1.815 29.04 5.445
296 2 0.0 30.855 5.445
297 2 0.0 29.04 7.26
298 1 1.815 30.855 7.26
299 2 1.815 29.04 9.075
300 1 0.0 30.855 9.075
301 1 0.0 29.04 10.89
302 1 1.815 30.855 10.89
303 1 1.815 29.04 12.705
304 1 0.0 30.855 12.705
305 2 0.0 29.04 14.52
306 2 1.815 30.855 14.52
307 2 1.815 29.04 16.335
308 2 0.0 30.855 16.335
309 1 0.0 29.04 18.15
310 1 1.815 30.855 18.15
311 2 1.815 29.04 19.965
312 1 0.0 30.855 19.965
313 1 0.0 29.04 21.78
314 1 1.815 30.855 21.78
315 2 1.815 29.04 23.595000000000002
316 1 0.0 30.855 23.595000000000002
317 2 0.0 29.04 25.41
318 2 1.815 30.855 25.41
319 2 1.815 29.04 27.225
320 2 0.0 30.855 27.225
321 2 0.0 29.04 29.04
322 2 1.815 30.855 29.04
323 2 1.815 29.04 30.855
324 2 0.0 30.855 30.855
325 1 3.63 0.0 0.0
326 2 5.445 1.815 0.0
327 1 5.445 0.0 1.815
328 2 3.63 1.815 1.815
329 1 3.63 0.0 3.63
330 2 5.445 1.815 3.63
331 1 5.445 0.0 5.445
332 1 3.63 1.815 5.445
333 1 3.63 0.0 7.26
334 2 5.445 1.815 7.26
335 1 5.445 0.0 9.075
336 2 3.63 1.815 9.075
337 1 3.63 0.0 10.89
338 2 5.445 1.815 10.89
339 1 5.445 0.0 12.705
340 2 3.63 1.815 12.705
341 2 3.63 0.0 14.52
342 2 5.445 1.815 14.52
343 1 5.445 0.0 16.335
344 1 3.63 1.815 16.335
345 1 3.63 0.0 18.15
346 2 5.445 1.815 18.15
347 1 5.445 0.0 19.965
348 2 3.63 1.815 19.965
349 1 3.63 0.0 21.78
350 2 5.445 1.815 21.78
351 2 5.445 0.0 23.595000000000002
352 2 3.63 1.815 23.595000000000002
353 2 3.63 0.0 25.41
354 1 5.445 1.815 25.41
355 2 5.445 0.0 27.225
356 2 3.63 1.815 27.225
357 2 3.63 0.0 29.04
358 2 5.445 1.815 29.04
359 2 5.445 0.0 30.855
360 2 3.63 1.815 30.855
361 2 3.63 3.63 0.0
362 1 5.445 5.445 0.0
363 1 5.445 3.63 1.815
364 1 3.63 5.445 1.815
365 1 3.63 3.63 3.63
366 2 5.445 5.445 3.63
367 2 5.445 3.63 5.445
368 1 3.63 5.445 5.445
369 2 3.63 3.63 7.26
370 2 5.445 5.445 7.26
371 2 5.445 3.63 9.075
372 1 3.63 5.445 9.075
373 1 3.63 3.63 10.89
374 1 5.445 5.445 10.89
375 1 5.445 3.63 12.705
376 1 3.63 5.445 12.705
377 2 3.63 3.63 14.52
378 1 5.445 5.445 14.52
379 2 5.445 3.63 16.335
380 1 3.63 5.445 16.335
381 1 3.63 3.63 18.15
382 1 5.445 5.445 18.15
383 2 5.445 3.63 19.965
384 1 3.63 5.445 19.965
385 2 3.63 3.63 21.78
386 1 5.445 5.445 21.78
387 1 5.445 3.63 23.595000000000002
388 1 3.63 5.445 23.595000000000002
389 2 3.63 3.63 25.41
390 2 5.445 5.445 25.41
391 1 5.445 3.63 27.225
392 1 3.63 5.445 27.225
393 1 3.63 3.63 29.04
394 1 5.445 5.445 29.04
395 1 5.445 3.63 30.855
396 1 3.63 5.445 30.855
397 2 3.63 7.26 0.0
398 1 5.445 9.075 0.0
399 1 5.445 7.26 1.815
400 1 3.63 9.075 1.815
401 2 3.63 7.26 3.63
402 2 5.445 9.075 3.63
403 2 5.445 7.26 5.445
404 2 3.63 9.075 5.445
405 2 3.63 7.26 7.26
406 2 5.445 9.075 7.26
407 2 5.445 7.26 9.075
408 1 3.63 9.075 9.075
409 2 3.63 7.26 10.89
410 1 5.445 9.075 10.89
411 1 5.445 7.26 12.705
412 2 3.63 9.075 12.705
413 1 3.63 7.26 14.52
414 2 5.445 9.075 14.52
415 2 5.445 7.26 16.335
416 2 3.63 9.075 16.335
417 2 3.63 7.26 18.15
418 1 5.445 9.075 18.15
419 1 5.445 7.26 19.965
420 1 3.63 9.075 19.965
421 1 3.63 7.26 21.78
422 2 5.445 9.075 21.78
423 2 5.445 7.26 23.595000000000002
424 1 3.63 9.075 23.595000000000002
425 2 3.63 7.26 25.41
426 1 5.445 9.075 25.41
427 2 5.445 7.26 27.225
428 1 3.63 9.075 27.225
429 1 3.63 7.26 29.04
430 2 5.445 9.075 29.04
431 1 5.445 7.26 30.855
432 1 3.63 9.075 30.855
433 2 3.63 10.89 0.0
434 1 5.445 12.705 0.0
435 1 5.445 10.89 1.815
436 2 3.63 12.705 1.815
437 1 3.63 10.89 3.63
438 1 5.445 12.705 3.63
439 2 5.445 10.89 5.445
440 1 3.63 12.705 5.445
441 1 3.63 10.89 7.26
442 1 5.445 12.705 7.26
443 2 5.445 10.89 9.075
444 1 3.63 12.705 9.075
445 2 3.63 10.89 10.89
446 2 5.445 12.705 10.89
447 2 5.445 10.89 12.705
448 2 3.63 12.705 12.705
449 1 3.63 10.89 14.52
450 1 5.445 12.705 14.52
451 2 5.445 10.89 16.335
452 1 3.63 12.705 16.335
453 1 3.63 10.89 18.15
454 2 5.445 12.705 18.15
455 2 5.445 10.89 19.965
456 2 3.63 12.705 19.965
457 2 3.63 10.89 21.78
458 2 5.445 12.705 21.78
459 1 5.445 10.89 23.595000000000002
460 2 3.63 12.705 23.595000000000002
461 2 3.63 10.89 25.41
462 2 5.445 12.705 25.41
463 1 5.445 10.89 27.225
464 2 3.63 12.705 27.225
465 1 3.63 10.89 29.04
466 2 5.445 12.705 29.04
467 1 5.445 10.89 30.855
468 2 3.63 12.705 30.855
469 1 3.63 14.52 0.0
470 2 5.445 16.335 0.0
471 1 5.445 14.52 1.815
472 2 3.63 16.335 1.815
473 1 3.63 14.52 3.63
474 1 5.445 16.335 3.63
475 2 5.445 14.52 5.445
476 1 3.63 16.335 5.445
477 1 3.63 14.52 7.26
478 1 5.445 16.335 7.26
479 2 5.445 14.52 9.075
480 2 3.63 16.335 9.075
481 1 3.63 14.52 10.89
482 1 5.445 16.335 10.89
483 2 5.445 14.52 12.705
484 2 3.63 16.335 12.705
485 2 3.63 14.52 14.52
486 1 5.445 16.335 14.52
487 2 5.445 14.52 16.335
488 2 3.63 16.335 16.335
489 1 3.63 14.52 18.15
490 2 5.445 16.335 18.15
491 2 5.445 14.52 19.965
492 1 3.63 16.335 19.965
493 1 3.63 14.52 21.78
494 2 5.445 16.335 21.78
495 2 5.445 14.52 23.595000000000002
496 2 3.63 16.335 23.595000000000002
497 1 3.63 14.52 25.41
498 2 5.445 16.335 25.41
499 1 5.445 14.52 27.225
500 2 3.63 16.335 27.225
501 2 3.63 14.52 29.04
502 2 5.445 16.335 29.04
503 1 5.445 14.52 30.855
504 1 3.63 16.335 30.855
505 2 3.63 18.15 0.0
506 2 5.445 19.965 0.0
507 2 5.445 18.15 1.815
508 2 3.63 19.965 1.815
509 1 3.63 18.15 3.63
510 1 5.445 19.965 3.63
511 1 5.445 18.15 5.445
512 1 3.63 19.965 5.445
513 1 3.63 18.15 7.26
514 2 5.445 19.965 7.26
515 1 5.445 18.15 9.075
516 1 3.63 19.965 9.075
517 2 3.63 18.15 10.89
518 1 5.445 19.965 10.89
519 2 5.445 18.15 12.705
520 2 3.63 19.965 12.705
521 2 3.63 18.15 14.52
522 2 5.445 19.965 14.52
523 1 5.445 18.15 16.335
524 2 3.63 19.965 16.335
525 2 3.63 18.15 18.15
526 1 5.445 19.965 18.15
527 2 5.445 18.15 19.965
528 1 3.63 19.965 19.965
529 2 3.63 18.15 21.78
530 2 5.445 19.965 21.78
531 1 5.445 18.15 23.595000000000002
532 2 3.63 19.965 23.595000000000002
533 2 3.63 18.15 25.41
534 2 5.445 19.965 25.41
535 2 5.445 18.15 27.225
536 2 3.63 19.965 27.225
537 1 3.63 18.15 29.04
538 2 5.445 19.965 29.04
539 2 5.445 18.15 30.855
540 1 3.63 19.965 30.855
541 2 3.63 21.78 0.0
542 1 5.445 23.595000000000002 0.0
543 2 5.445 21.78 1.815
544 1 3.63 23.595000000000002 1.815
545 1 3.63 21.78 3.63
546 1 5.445 23.595000000000002 3.63
547 1 5.445 21.78 5.445
548 2 3.63 23.595000000000002 5.445
549 1 3.63 21.78 7.26
550 2 5.445 23.595000000000002 7.26
551 1 5.445 21.78 9.075
552 2 3.63 23.595000000000002 9.075
553 2 3.63 21.78 10.89
554 2 5.445 23.595000000000002 10.89
555 2 5.445 21.78 12.705
556 2 3.63 23.595000000000002 12.705
557 1 3.63 21.78 14.52
558 2 5.445 23.595000000000002 14.52
559 1 5.445 21.78 16.335
560 1 3.63 23.595000000000002 16.335
561 2 3.63 21.78 18.15
562 1 5.445 23.595000000000002 18.15
563 1 5.445 21.78 19.965
564 2 3.63 23.595000000000002 19.965
565 1 3.63 21.78 21.78
566 2 5.445 23.595000000000002 21.78
567 1 5.445 21.78 23.595000000000002
568 1 3.63 23.595000000000002 23.595000000000002
569 2 3.63 21.78 25.41
570 1 5.445 23.595000000000002 25.41
571 1 5.445 21.78 27.225
572 1 3.63 23.595000000000002 27.225
573 1 3.63 21.78 29.04
574 2 5.445 23.595000000000002 29.04
575 2 5.445 21.78 30.855
576 1 3.63 23.595000000000002 30.855
577 1 3.63 25.41 0.0
578 2 5.445 27.225 0.0
579 2 5.445 25.41 1.815
580 2 3.63 27.225 1.815
581 1 3.63 25.41 3.63
582 2 5.445 27.225 3.63
583 1 5.445 25.41 5.445
584 1 3.63 27.225 5.445
585 1 3.63 25.41 7.26
586 1 5.445 27.225 7.26
587 1 5.445 25.41 9.075
588 1 3.63 27.225 9.075
589 1 3.63 25.41 10.89
590 1 5.445 27.225 10.89
591 1 5.445 25.41 12.705
592 2 3.63 27.225 12.705
593 1 3.63 25.41 14.52
594 1 5.445 27.225 14.52
595 2 5.445 25.41 16.335
596 1 3.63 27.225 16.335
597 2 3.63 25.41 18.15
598 1 5.445 27.225 18.15
599 2 5.445 25.41 19.965
600 1 3.63 27.225 19.965
601 2 3.63 25.41 21.78
602 1 5.445 27.225 21.78
603 2 5.445 25.41 23.595000000000002
604 2 3.63 27.225 23.595000000000002
605 2 3.63 25.41 25.41
606 2 5.445 27.225 25.41
607 2 5.445 25.41 27.225
608 2 3.63 27.225 27.225
609 2 3.63 25.41 29.04
610 2 5.445 27.225 29.04
611 2 5.445 25.41 30.855
612 1 3.63 27.225 30.855
613 1 3.63 29.04 0.0
614 2 5.445 30.855 0.0
615 1 5.445 29.04 1.815
616 1 3.63 30.855 1.815
617 1 3.63 29.04 3.63
618 2 5.445 30.855 3.63
619 1 5.445 29.04 5.445
620 2 3.63 30.855 5.445
621 2 3.63 29.04 7.26
622 1 5.445 30.855 7.26
623 1 5.445 29.04 9.075
624 1 3.63 30.855 9.075
625 1 3.63 29.04 10.89
626 1 5.445 30.855 10.89
627 1 5.445 29.04 12.705
628 1 3.63 30.855 12.705
629 2 3.63 29.04 14.52
630 1 5.445 30.855 14.52
631 1 5.445 29.04 16.335
632 1 3.63 30.855 16.335
633 1 3.63 29.04 18.15
634 2 5.445 30.855 18.15
635 2 5.445 29.04 19.965
636 1 3.63 30.855 19.965
637 2 3.63 29.04 21.78
638 2 5.445 30.855 21.78
639 2 5.445 29.04 23.595000000000002
640 1 3.63 30.855 23.595000000000002
641 1 3.63 29.04 25.41
642 2 5.445 30.855 25.41
643 2 5.445 29.04 27.225
644 2 3.63 30.855 27.225
645 1 3.63 29.04 29.04
646 1 5.445 30.855 29.04
647 1 5.445 29.04 30.855
648 2 3.63 30.855 30.855
649 1 7.26 0.0 0.0
650 1 9.075 1.815 0.0
651 2 9.075 0.0 1.815
652 2 7.26 1.815 1.815
653 1 7.26 0.0 3.63
654 2 9.075 1.815 3.63
655 2 9.075 0.0 5.445
656 2 7.26 1.815 5.445
657 2 7.26 0.0 7.26
658 2 9.075 1.815 7.26
659 1 9.075 0.0 9.075
660 2 7.26 1.815 9.075
661 1 7.26 0.0 10.89
662 1 9.075 1.815 10.89
663 2 9.075 0.0 12.705
664 2 7.26 1.815 12.705
665 2 7.26 0.0 14.52
666 1 9.075 1.815 14.52
667 1 9.075 0.0 16.335
668 1 7.26 1.815 16.335
669 1 7.26 0.0 18.15
670 2 9.075 1.815 18.15
671 2 9.075 0.0 19.965
672 2 7.26 1.815 19.965
673 2 7.26 0.0 21.78
674 2 9.075 1.815 21.78
675 1 9.075 0.0 23.595000000000002
676 2 7.26 1.815 23.595000000000002
677 2 7.26 0.0 25.41
678 2 9.075 1.815 25.41
679 1 9.075 0.0 27.225
680 2 7.26 1.815 27.225
681 1 7.26 0.0 29.04
682 2 9.075 1.815 29.04
683 1 9.075 0.0 30.855
684 2 7.26 1.815 30.855
685 1 7.26 3.63 0.0
686 1 9.075 5.445 0.0
687 1 9.075 3.63 1.815
688 1 7.26 5.445 1.815
689 2 7.26 3.63 3.63
690 1 9.075 5.445 3.63
691 2 9.075 3.63 5.445
692 1 7.26 5.445 5.445
693 2 7.26 3.63 7.26
694 1 9.075 5.445 7.26
695 1 9.075 3.63 9.075
696 2 7.26 5.445 9.075
697 1 7.26 3.63 10.89
698 1 9.075 5.445 10.89
699 1 9.075 3.63 12.705
700 2 7.26 5.445 12.705
701 1 7.26 3.63 14.52
702 1 9.075 5.445 14.52
703 1 9.075 3.63 16.335
704 1 7.26 5.445 16.335
705 2 7.26 3.63 18.15
706 2 9.075 5.445 18.15
707 2 9.075 3.63 19.965
708 1 7.26 5.445 19.965
709 1 7.26 3.63 21.78
710 2 9.075 5.445 21.78
711 1 9.075 3.63 23.595000000000002
712 1 7.26 5.445 23.595000000000002
713 1 7.26 3.63 25.41
714 2 9.075 5.445 25.41
715 2 9.075 3.63 27.225
716 2 7.26 5.445 27.225
717 2 7.26 3.63 29.04
718 2 9.075 5.445 29.04
719 1 9.075 3.63 30.855
720 2 7.26 5.445 30.855
721 1 7.26 7.26 0.0
722 1 9.075 9.075 0.0
723 1 9.075 7.26 1.815
724 1 7.26 9.075 1.815
725 2 7.26 7.26 3.63
726 1 9.075 9.075 3.63
727 2 9.075 7.26 5.445
728 1 7.26 9.075 5.445
729 1 7.26 7.26 7.26
730 2 9.075 9.075 7.26
731 2 9.075 7.26 9.075
732 1 7.26 9.075 9.075
733 2 7.26 7.26 10.89
734 2 9.075 9.075 10.89
735 2 9.075 7.26 12.705
736 1 7.26 9.075 12.705
737 1 7.26 7.26 14.52
738 1 9.075 9.075 14.52
739 2 9.075 7.26 16.335
740 1 7.26 9.075 16.335
741 2 7.26 7.26 18.15
742 1 9.075 9.075 18.15
743 1 9.075 7.26 19.965
744 2 7.26 9.075 19.965
745 1 7.26 7.26 21.78
746 1 9.075 9.075 21.78
747 2 9.075 7.26 23.595000000000002
748 1 7.26 9.075 23.595000000000002
749 1 7.26 7.26 25.41
750 2 9.075 9.075 25.41
751 1 9.075 7.26 27.225
752 2 7.26 9.075 27.225
753 2 7.26 7.26 29.04
754 1 9.075 9.075 29.04
755 1 9.075 7.26 30.855
756 2 7.26 9.075 30.855
757 2 7.26 10.89 0.0
758 1 9.075 12.705 0.0
759 1 9.075 10.89 1.815
760 2 7.26 12.705 1.815
761 2 7.26 10.89 3.63
762 2 9.075 12.705 3.63
763 1 9.075 10.89 5.445
764 2 7.26 12.705 5.445
765 1 7.26 10.89 7.26
766 1 9.075 12.705 7.26
767 2 9.075 10.89 9.075
768 1 7.26 12.705 9.075
769 1 7.26 10.89 10.89
770 2 9.075 12.705 10.89
771 2 9.075 10.89 12.705
772 1 7.26 12.705 12.705
773 2 7.26 10.89 14.52
774 2 9.075 12.705 14.52
775 1 9.075 10.89 16.335
776 2 7.26 12.705 16.335
777 1 7.26 10.89 18.15
778 1 9.075 12.705 18.15
779 2 9.075 10.89 19.965
780 1 7.26 12.705 19.965
781 2 7.26 10.89 21.78
782 2 9.075 12.705 21.78
783 2 9.075 10.89 23.595000000000002
784 1 7.26 12.705 23.595000000000002
785 2 7.26 10.89 25.41
786 2 9.075 12.705 25.41
787 1 9.075 10.89 27.225
788 2 7.26 12.705 27.225
789 1 7.26 10.89 29.04
790 1 9.075 12.705 29.04
791 2 9.075 10.89 30.855
792 1 7.26 12.705 30.855
793 1 7.26 14.52 0.0
794 1 9.075 16.335 0.0
795 1 9.075 14.52 1.815
796 1 7.26 16.335 1.815
797 2 7.26 14.52 3.63
798 1 9.075 16.335 3.63
799 2 9.075 14.52 5.445
800 2 7.26 16.335 5.445
801 1 7.26 14.52 7.26
802 1 9.075 16.335 7.26
803 1 9.075 14.52 9.075
804 2 7.26 16.335 9.075
805 2 7.26 14.52 10.89
806 1 9.075 16.335 10.89
807 2 9.075 14.52 12.705
808 1 7.26 16.335 12.705
809 2 7.26 14.52 14.52
810 1 9.075 16.335 14.52
811 2 9.075 14.52 16.335
812 1 7.26 16.335 16.335
813 1 7.26 14.52 18.15
814 1 9.075 16.335 18.15
815 2 9.075 14.52 19.965
816 1 7.26 16.335 19.965
817 2 7.26 14.52 21.78
818 2 9.075 16.335 21.78
819 2 9.075 14.52 23.595000000000002
820 1 7.26 16.335 23.595000000000002
821 2 7.26 14.52 25.41
822 2 9.075 16.335 25.41
823 1 9.075 14.52 27.225
824 2 7.26 16.335 27.225
825 1 7.26 14.52 29.04
826 1 9.075 16.335 29.04
827 2 9.075 14.52 30.855
828 1 7.26 16.335 30.855
829 1 7.26 18.15 0.0
830 1 9.075 19.965 0.0
831 2 9.075 18.15 1.815
832 2 7.26 19.965 1.815
833 1 7.26 18.15 3.63
834 2 9.075 19.965 3.63
835 1 9.075 18.15 5.445
836 2 7.26 19.965 5.445
837 2 7.26 18.15 7.26
838 1 9.075 19.965 7.26
839 1 9.075 18.15 9.075
840 2 7.26 19.965 9.075
841 2 7.26 18.15 10.89
842 1 9.075 19.965 10.89
843 2 9.075 18.15 12.705
844 2 7.26 19.965 12.705
845 1 7.26 18.15 14.52
846 2 9.075 19.965 14.52
847 1 9.075 18.15 16.335
848 2 7.26 19.965 16.335
849 1 7.26 18.15 18.15
850 1 9.075 19.965 18.15
851 2 9.075 18.15 19.965
852 2 7.26 19.965 19.965
853 2 7.26 18.15 21.78
854 2 9.075 19.965 21.78
855 2 9.075 18.15 23.595000000000002
856 2 7.26 19.965 23.595000000000002
857 1 7.26 18.15 25.41
858 2 9.075 19.965 25.41
859 2 9.075 18.15 27.225
860 2 7.26 19.965 27.225
861 2 7.26 18.15 29.04
862 2 9.075 19.965 29.04
863 1 9.075 18.15 30.855
864 1 7.26 19.965 30.855
865 1 7.26 21.78 0.0
866 1 9.075 23.595000000000002 0.0
867 1 9.075 21.78 1.815
868 1 7.26 23.595000000000002 1.815
869 1 7.26 21.78 3.63
870 2 9.075 23.595000000000002 3.63
871 2 9.075 21.78 5.445
872 1 7.26 23.595000000000002 5.445
873 1 7.26 21.78 7.26
874 2 9.075 23.595000000000002 7.26
875 2 9.075 21.78 9.075
876 2 7.26 23.595000000000002 9.075
877 1 7.26 21.78 10.89
878 1 9.075 23.595000000000002 10.89
879 2 9.075 21.78 12.705
880 1 7.26 23.595000000000002 12.705
881 1 7.26 21.78 14.52
882 2 9.075 23.595000000000002 14.52
883 1 9.075 21.78 16.335
884 2 7.26 23.595000000000002 16.335
885 2 7.26 21.78 18.15
886 1 9.075 23.595000000000002 18.15
887 2 9.075 21.78 19.965
888 1 7.26 23.595000000000002 19.965
889 2 7.26 21.78 21.78
890 1 9.075 23.595000000000002 21.78
891 1 9.075 21.78 23.595000000000002
892 1 7.26 23.595000000000002 23.595000000000002
893 2 7.26 21.78 25.41
894 1 9.075 23.595000000000002 25.41
895 1 9.075 21.78 27.225
896 2 7.26 23.595000000000002 27.225
897 2 7.26 21.78 29.04
898 2 9.075 23.595000000000002 29.04
899 1 9.075 21.78 30.855
900 1 7.26 23.595000000000002 30.855
901 2 7.26 25.41 0.0
902 1 9.075 27.225 0.0
903 1 9.075 25.41 1.815
904 2 7.26 27.225 1.815
905 1 7.26 25.41 3.63
906 2 9.075 27.225 3.63
907 2 9.075 25.41 5.445
908 1 7.26 27.225 5.445
909 1 7.26 25.41 7.26
910 2 9.075 27.225 7.26
911 2 9.075 25.41 9.075
912 2 7.26 27.225 9.075
913 2 7.26 25.41 10.89
914 1 9.075 27.225 10.89
915 2 9.075 25.41 12.705
916 2 7.26 27.225 12.705
917 1 7.26 25.41 14.52
918 2 9.075 27.225 14.52
919 2 9.075 25.41 16.335
920 2 7.26 27.225 16.335
921 1 7.26 25.41 18.15
922 1 9.075 27.225 18.15
923 1 9.075 25.41 19.965
924 2 7.26 27.225 19.965
925 1 7.26 25.41 21.78
926 2 9.075 27.225 21.78
927 2 9.075 25.41 23.595000000000002
928 2 7.26 27.225 23.595000000000002
929 1 7.26 25.41 25.41
930 1 9.075 27.225 25.41
931 2 9.075 25.41 27.225
932 1 7.26 27.225 27.225
933 2 7.26 25.41 29.04
934 2 9.075 27.225 29.04
935 1 9.075 25.41 30.855
936 1 7.26 27.225 30.855
937 1 7.26 29.04 0.0
938 2 9.075 30.855 0.0
939 2 9.075 29.04 1.815
940 2 7.26 30.855 1.815
941 2 7.26 29.04 3.63
942 2 9.075 30.855 3.63
943 2 9.075 29.04 5.445
944 2 7.26 30.855 5.445
945 1 7.26 29.04 7.26
946 2 9.075 30.855 7.26
947 1 9.075 29.04 9.075
948 1 7.26 30.855 9.075
949 2 7.26 29.04 10.89
950 1 9.075 30.855 10.89
951 1 9.075 29.04 12.705
952 1 7.26 30.855 12.705
953 1 7.26 29.04 14.52
954 2 9.075 30.855 14.52
955 1 9.075 29.04 16.335
956 2 7.26 30.855 16.335
957 1 7.26 29.04 18.15
958 1 9.075 30.855 18.15
959 2 9.075 29.04 19.965
960 2 7.26 30.855 19.965
961 1 7.26 29.04 21.78
962 1 9.075 30.855 21.78
963 2 9.075 29.04 23.595000000000002
964 1 7.26 30.855 23.595000000000002
965 1 7.26 29.04 25.41
966 2 9.075 30.855 25.41
967 2 9.075 29.04 27.225
968 1 7.26 30.855 27.225
969 1 7.26 29.04 29.04
970 1 9.075 30.855 29.04
971 1 9.075 29.04 30.855
972 2 7.26 30.855 30.855
973 2 10.89 0.0 0.0
974 2 12.705 1.815 0.0
975 2 12.705 0.0 1.815
976 2 10.89 1.815 1.815
977 2 10.89 0.0 3.63
978 2 12.705 1.815 3.63
979 2 12.705 0.0 5.445
980 2 10.89 1.815 5.445
981 1 10.89 0.0 7.26
982 2 12.705 1.815 7.26
983 1 12.705 0.0 9.075
984 1 10.89 1.815 9.075
985 1 10.89 0.0 10.89
986 1 12.705 1.815 10.89
987 2 12.705 0.0 12.705
988 1 10.89 1.815 12.705
989 2 10.89 0.0 14.52
990 1 12.705 1.815 14.52
991 1 12.705 0.0 16.335
992 1 10.89 1.815 16.335
993 1 10.89 0.0 18.15
994 2 12.705 1.815 18.15
995 2 12.705 0.0 19.965
996 2 10.89 1.815 19.965
997 2 10.89 0.0 21.78
998 2 12.705 1.815 21.78
999 2 12.705 0.0 23.595000000000002
1000 1 10.89 1.815 23.595000000000002
1001 2 10.89 0.0 25.41
1002 1 12.705 1.815 25.41
1003 2 12.705 0.0 27.225
1004 1 10.89 1.815 27.225
1005 1 10.89 0.0 29.04
1006 1 12.705 1.815 29.04
1007 2 12.705 0.0 30.855
1008 2 10.89 1.815 30.855
1009 1 10.89 3.63 0.0
1010 1 12.705 5.445 0.0
1011 2 12.705 3.63 1.815
1012 2 10.89 5.445 1.815
1013 1 10.89 3.63 3.63
1014 1 12.705 5.445 3.63
1015 2 12.705 3.63 5.445
1016 2 10.89 5.445 5.445
1017 1 10.89 3.63 7.26
1018 1 12.705 5.445 7.26
1019 1 12.705 3.63 9.075
1020 2 10.89 5.445 9.075
1021 2 10.89 3.63 10.89
1022 2 12.705 5.445 10.89
1023 1 12.705 3.63 12.705
1024 2 10.89 5.445 12.705
1025 1 10.89 3.63 14.52
1026 2 12.705 5.445 14.52
1027 2 12.705 3.63 16.335
1028 2 10.89 5.445 16.335
1029 2 10.89 3.63 18.15
1030 2 12.705 5.445 18.15
1031 2 12.705 3.63 19.965
1032 1 10.89 5.445 19.965
1033 1 10.89 3.63 21.78
1034 2 12.705 5.445 21.78
1035 2 12.705 3.63 23.595000000000002
1036 1 10.89 5.445 23.595000000000002
1037 2 10.89 3.63 25.41
1038 2 12.705 5.445 25.41
1039 2 12.705 3.63 27.225
1040 1 10.89 5.445 27.225
1041 1 10.89 3.63 29.04
1042 1 12.705 5.445 29.04
1043 2 12.705 3.63 30.855
1044 2 10.89 5.445 30.855
1045 1 10.89 7.26 0.0
1046 2 12.705 9.075 0.0
1047 2 12.705 7.26 1.815
1048 1 10.89 9.075 1.815
1049 2 10.89 7.26 3.63
1050 1 12.705 9.075 3.63
1051 2 12.705 7.26 5.445
1052 2 10.89 9.075 5.445
1053 1 10.89 7.26 7.26
1054 1 12.705 9.075 7.26
1055 1 12.705 7.26 9.075
1056 1 10.89 9.075 9.075
1057 2 10.89 7.26 10.89
1058 2 12.705 9.075 10.89
1059 2 12.705 7.26 12.705
1060 2 10.89 9.075 12.705
1061 1 10.89 7.26 14.52
1062 1 12.705 9.075 14.52
1063 1 12.705 7.26 16.335
1064 1 10.89 9.075 16.335
1065 2 10.89 7.26 18.15
1066 1 12.705 9.075 18.15
1067 2 12.705 7.26 19.965
1068 1 10.89 9.075 19.965
1069 1 10.89 7.26 21.78
1070 1 12.705 9.075 21.78
1071 1 12.705 7.26 23.595000000000002
1072 2 10.89 9.075 23.595000000000002
1073 1 10.89 7.26 25.41
1074 1 12.705 9.075 25.41
1075 1 12.705 7.26 27.225
1076 1 10.89 9.075 27.225
1077 2 10.89 7.26 29.04
1078 2 12.705 9.075 29.04
1079 2 12.705 7.26 30.855
1080 2 10.89 9.075 30.855
1081 1 10.89 10.89 0.0
1082 1 12.705 12.705 0.0
1083 2 12.705 10.89 1.815
1084 2 10.89 12.705 1.815
1085 1 10.89 10.89 3.63
1086 2 12.705 12.705 3.63
1087 2 12.705 10.89 5.445
1088 2 10.89 12.705 5.445
1089 2 10.89 10.89 7.26
1090 1 12.705 12.705 7.26
1091 2 12.705 10.89 9.075
1092 2 10.89 12.705 9.075
1093 2 10.89 10.89 10.89
1094 2 12.705 12.705 10.89
1095 1 12.705 10.89 12.705
1096 1 10.89 12.705 12.705
1097 2 10.89 10.89 14.52
1098 2 12.705 12.705 14.52
1099 1 12.705 10.89 16.335
1100 1 10.89 12.705 16.335
1101 1 10.89 10.89 18.15
1102 2 12.705 12.705 18.15
1103 1 12.705 10.89 19.965
1104 1 10.89 12.705 19.965
1105 1 10.89 10.89 21.78
1106 2 12.705 12.705 21.78
1107 2 12.705 10.89 23.595000000000002
1108 2 10.89 12.705 23.595000000000002
1109 1 10.89 10.89 25.41
1110 2 12.705 12.705 25.41
1111 1 12.705 10.89 27.225
1112 2 10.89 12.705 27.225
1113 1 10.89 10.89 29.04
1114 2 12.705 12.705 29.04
1115 2 12.705 10.89 30.855
1116 2 10.89 12.705 30.855
1117 2 10.89 14.52 0.0
1118 2 12.705 16.335 0.0
1119 2 12.705 14.52 1.815
1120 1 10.89 16.335 1.815
1121 2 10.89 14.52 3.63
1122 2 12.705 16.335 3.63
1123 1 12.705 14.52 5.445
1124 2 10.89 16.335 5.445
1125 2 10.89 14.52 7.26
1126 1 12.705 16.335 7.26
1127 2 12.705 14.52 9.075
1128 1 10.89 16.335 9.075
1129 2 10.89 14.52 10.89
1130 1 12.705 16.335 10.89
1131 2 12.705 14.52 12.705
1132 2 10.89 16.335 12.705
1133 1 10.89 14.52 14.52
1134 2 12.705 16.335 14.52
1135 1 12.705 14.52 16.335
1136 2 10.89 16.335 16.335
1137 2 10.89 14.52 18.15
1138 1 12.705 16.335 18.15
1139 2 12.705 14.52 19.965
1140 1 10.89 16.335 19.965
1141 1 10.89 14.52 21.78
1142 1 12.705 16.335 21.78
1143 2 12.705 14.52 23.595000000000002
1144 2 10.89 16.335 23.595000000000002
1145 2 10.89 14.52 25.41
1146 1 12.705 16.335 25.41
1147 1 12.705 14.52 27.225
1148 2 10.89 16.335 27.225
1149 1 10.89 14.52 29.04
1150 2 12.705 16.335 29.04
1151 1 12.705 14.52 30.855
1152 1 10.89 16.335 30.855
1153 2 10.89 18.15 0.0
1154 1 12.705 19.965 0.0
1155 1 12.705 18.15 1.815
1156 1 10.89 19.965 1.815
1157 1 10.89 18.15 3.63
1158 2 12.705 19.965 3.63
1159 1 12.705 18.15 5.445
1160 2 10.89 19.965 5.445
1161 2 10.89 18.15 7.26
1162 2 12.705 19.965 7.26
1163 1 12.705 18.15 9.075
1164 2 10.89 19.965 9.075
1165 1 10.89 18.15 10.89
1166 2 12.705 19.965 10.89
1167 1 12.705 18.15 12.705
1168 1 10.89 19.965 12.705
1169 2 10.89 18.15 14.52
1170 2 12.705 19.965 14.52
1171 2 12.705 18.15 16.335
1172 2 10.89 19.965 16.335
1173 1 10.89 18.15 18.15
1174 2 12.705 19.965 18.15
1175 2 12.705 18.15 19.965
1176 2 10.89 19.965 19.965
1177 2 10.89 18.15 21.78
1178 1 12.705 19.965 21.78
1179 1 12.705 18.15 23.595000000000002
1180 1 10.89 19.965 23.595000000000002
1181 1 10.89 18.15 25.41
1182 2 12.705 19.965 25.41
1183 1 12.705 18.15 27.225
1184 2 10.89 19.965 27.225
1185 1 10.89 18.15 29.04
1186 2 12.705 19.965 29.04
1187 1 12.705 18.15 30.855
1188 2 10.89 19.965 30.855
1189 2 10.89 21.78 0.0
1190 1 12.705 23.595000000000002 0.0
1191 1 12.705 21.78 1.815
1192 1 10.89 23.595000000000002 1.815