CuNi atom datafile for lammps scripts 

216 atoms
2 atom types
0.0 21.78 xlo xhi
0.0 10.89 ylo yhi
0.0 10.89 zlo zhi
0.0 0.0 0.0 xy xz yz

Atoms

1 2 0.0 0.0 0.0
2 1 1.815 1.815 0.0
3 2 1.815 0.0 1.815
4 2 0.0 1.815 1.815
5 1 0.0 0.0 3.63
6 2 1.815 1.815 3.63
7 2 1.815 0.0 5.445
8 2 0.0 1.815 5.445
9 2 0.0 0.0 7.26
10 2 1.815 1.815 7.26
11 1 1.815 0.0 9.075
12 1 0.0 1.815 9.075
13 2 0.0 3.63 0.0
14 1 1.815 5.445 0.0
15 1 1.815 3.63 1.815
16 1 0.0 5.445 1.815
17 1 0.0 3.63 3.63
18 2 1.815 5.445 3.63
19 1 1.815 3.63 5.445
20 2 0.0 5.445 5.445
21 2 0.0 3.63 7.26
22 2 1.815 5.445 7.26
23 1 1.815 3.63 9.075
24 1 0.0 5.445 9.075
25 1 0.0 7.26 0.0
26 2 1.815 9.075 0.0
27 1 1.815 7.26 1.815
28 1 0.0 9.075 1.815
29 2 0.0 7.26 3.63
30 1 1.815 9.075 3.63
31 2 1.815 7.26 5.445
32 1 0.0 9.075 5.445
33 2 0.0 7.26 7.26
34 1 1.815 9.075 7.26
35 1 1.815 7.26 9.075
36 2 0.0 9.075 9.075
37 1 3.63 0.0 0.0
38 2 5.445 1.815 0.0
39 1 5.445 0.0 1.815
40 1 3.63 1.815 1.815
41 2 3.63 0.0 3.63
42 2 5.445 1.815 3.63
43 1 5.445 0.0 5.445
44 1 3.63 1.815 5.445
45 2 3.63 0.0 7.26
46 2 5.445 1.815 7.26
47 1 5.445 0.0 9.075
48 1 3.63 1.815 9.075
49 2 3.63 3.63 0.0
50 1 5.445 5.445 0.0
51 1 5.445 3.63 1.815
52 1 3.63 5.445 1.815
53 2 3.63 3.63 3.63
54 1 5.445 5.445 3.63
55 2 5.445 3.63 5.445
56 1 3.63 5.445 5.445
57 2 3.63 3.63 7.26
58 2 5.445 5.445 7.26
59 2 5.445 3.63 9.075
60 1 3.63 5.445 9.075
61 1 3.63 7.26 0.0
62 2 5.445 9.075 0.0
63 2 5.445 7.26 1.815
64 1 3.63 9.075 1.815
65 1 3.63 7.26 3.63
66 1 5.445 9.075 3.63
67 2 5.445 7.26 5.445
68 2 3.63 9.075 5.445
69 2 3.63 7.26 7.26
70 2 5.445 9.075 7.26
71 1 5.445 7.26 9.075
72 1 3.63 9.075 9.075
73 1 7.26 0.0 0.0
74 1 9.075 1.815 0.0
75 1 9.075 0.0 1.815
76 2 7.26 1.815 1.815
77 2 7.26 0.0 3.63
78 1 9.075 1.815 3.63
79 1 9.075 0.0 5.445
80 2 7.26 1.815 5.445
81 2 7.26 0.0 7.26
82 1 9.075 1.815 7.26
83 2 9.075 0.0 9.075
84 2 7.26 1.815 9.075
85 2 7.26 3.63 0.0
86 1 9.075 5.445 0.0
87 1 9.075 3.63 1.815
88 2 7.26 5.445 1.815
89 1 7.26 3.63 3.63
90 2 9.075 5.445 3.63
91 2 9.075 3.63 5.445
92 1 7.26 5.445 5.445
93 2 7.26 3.63 7.26
94 2 9.075 5.445 7.26
95 1 9.075 3.63 9.075
96 1 7.26 5.445 9.075
97 2 7.26 7.26 0.0
98 1 9.075 9.075 0.0
99 1 9.075 7.26 1.815
100 2 7.26 9.075 1.815
101 2 7.26 7.26 3.63
102 2 9.075 9.075 3.63
103 2 9.075 7.26 5.445
104 1 7.26 9.075 5.445
105 2 7.26 7.26 7.26
106 1 9.075 9.075 7.26
107 2 9.075 7.26 9.075
108 1 7.26 9.075 9.075
109 2 10.89 0.0 0.0
110 2 12.705 1.815 0.0
111 2 12.705 0.0 1.815
112 1 10.89 1.815 1.815
113 1 10.89 0.0 3.63
114 2 12.705 1.815 3.63
115 1 12.705 0.0 5.445
116 1 10.89 1.815 5.445
117 1 10.89 0.0 7.26
118 1 12.705 1.815 7.26
119 2 12.705 0.0 9.075
120 1 10.89 1.815 9.075
121 2 10.89 3.63 0.0
122 2 12.705 5.445 0.0
123 2 12.705 3.63 1.815
124 1 10.89 5.445 1.815
125 1 10.89 3.63 3.63
126 1 12.705 5.445 3.63
127 2 12.705 3.63 5.445
128 1 10.89 5.445 5.445
129 2 10.89 3.63 7.26
130 2 12.705 5.445 7.26
131 2 12.705 3.63 9.075
132 1 10.89 5.445 9.075
133 2 10.89 7.26 0.0
134 2 12.705 9.075 0.0
135 2 12.705 7.26 1.815
136 1 10.89 9.075 1.815
137 2 10.89 7.26 3.63
138 1 12.705 9.075 3.63
139 2 12.705 7.26 5.445
140 2 10.89 9.075 5.445
141 2 10.89 7.26 7.26
142 2 12.705 9.075 7.26
143 1 12.705 7.26 9.075
144 1 10.89 9.075 9.075
145 2 14.52 0.0 0.0
146 1 16.335 1.815 0.0
147 2 16.335 0.0 1.815
148 2 14.52 1.815 1.815
149 2 14.52 0.0 3.63
150 2 16.335 1.815 3.63
151 1 16.335 0.0 5.445
152 2 14.52 1.815 5.445
153 1 14.52 0.0 7.26
154 2 16.335 1.815 7.26
155 2 16.335 0.0 9.075
156 2 14.52 1.815 9.075
157 1 14.52 3.63 0.0
158 1 16.335 5.445 0.0
159 1 16.335 3.63 1.815
160 1 14.52 5.445 1.815
161 1 14.52 3.63 3.63
162 1 16.335 5.445 3.63
163 1 16.335 3.63 5.445
164 1 14.52 5.445 5.445
165 1 14.52 3.63 7.26
166 1 16.335 5.445 7.26
167 2 16.335 3.63 9.075
168 2 14.52 5.445 9.075
169 1 14.52 7.26 0.0
170 2 16.335 9.075 0.0
171 1 16.335 7.26 1.815
172 2 14.52 9.075 1.815
173 2 14.52 7.26 3.63
174 2 16.335 9.075 3.63
175 1 16.335 7.26 5.445
176 2 14.52 9.075 5.445
177 2 14.52 7.26 7.26
178 1 16.335 9.075 7.26
179 2 16.335 7.26 9.075
180 2 14.52 9.075 9.075
181 1 18.15 0.0 0.0
182 1 19.965 1.815 0.0
183 1 19.965 0.0 1.815
184 1 18.15 1.815 1.815
185 2 18.15 0.0 3.63
186 2 19.965 1.815 3.63
187 2 19.965 0.0 5.445
188 2 18.15 1.815 5.445
189 2 18.15 0.0 7.26
190 1 19.965 1.815 7.26
191 2 19.965 0.0 9.075
192 1 18.15 1.815 9.075
193 1 18.15 3.63 0.0
194 1 19.965 5.445 0.0
195 2 19.965 3.63 1.815
196 2 18.15 5.445 1.815
197 2 18.15 3.63 3.63
198 2 19.965 5.445 3.63
199 2 19.965 3.63 5.445
200 1 18.15 5.445 5.445
201 2 18.15 3.63 7.26
202 2 19.965 5.445 7.26
203 2 19.965 3.63 9.075
204 2 18.15 5.445 9.075
205 1 18.15 7.26 0.0
206 2 19.965 9.075 0.0
207 2 19.965 7.26 1.815
208 2 18.15 9.075 1.815
209 2 18.15 7.26 3.63
210 1 19.965 9.075 3.63
211 2 19.965 7.26 5.445
212 2 18.15 9.075 5.445
213 2 18.15 7.26 7.26
214 1 19.965 9.075 7.26
215 1 19.965 7.26 9.075
216 1 18.15 9.075 9.075
