CuNi atom datafile for lammps scripts 

324 atoms
2 atom types
0.0 32.67 xlo xhi
0.0 10.89 ylo yhi
0.0 10.89 zlo zhi
0.0 0.0 0.0 xy xz yz

Atoms

1 1 0.0 0.0 0.0
2 1 1.815 1.815 0.0
3 2 1.815 0.0 1.815
4 2 0.0 1.815 1.815
5 2 0.0 0.0 3.63
6 2 1.815 1.815 3.63
7 1 1.815 0.0 5.445
8 2 0.0 1.815 5.445
9 2 0.0 0.0 7.26
10 1 1.815 1.815 7.26
11 1 1.815 0.0 9.075
12 1 0.0 1.815 9.075
13 2 0.0 3.63 0.0
14 2 1.815 5.445 0.0
15 1 1.815 3.63 1.815
16 2 0.0 5.445 1.815
17 1 0.0 3.63 3.63
18 2 1.815 5.445 3.63
19 2 1.815 3.63 5.445
20 1 0.0 5.445 5.445
21 2 0.0 3.63 7.26
22 1 1.815 5.445 7.26
23 1 1.815 3.63 9.075
24 2 0.0 5.445 9.075
25 1 0.0 7.26 0.0
26 2 1.815 9.075 0.0
27 2 1.815 7.26 1.815
28 1 0.0 9.075 1.815
29 1 0.0 7.26 3.63
30 2 1.815 9.075 3.63
31 2 1.815 7.26 5.445
32 2 0.0 9.075 5.445
33 1 0.0 7.26 7.26
34 2 1.815 9.075 7.26
35 1 1.815 7.26 9.075
36 1 0.0 9.075 9.075
37 2 3.63 0.0 0.0
38 1 5.445 1.815 0.0
39 1 5.445 0.0 1.815
40 1 3.63 1.815 1.815
41 2 3.63 0.0 3.63
42 1 5.445 1.815 3.63
43 2 5.445 0.0 5.445
44 1 3.63 1.815 5.445
45 2 3.63 0.0 7.26
46 2 5.445 1.815 7.26
47 2 5.445 0.0 9.075
48 1 3.63 1.815 9.075
49 2 3.63 3.63 0.0
50 1 5.445 5.445 0.0
51 2 5.445 3.63 1.815
52 2 3.63 5.445 1.815
53 1 3.63 3.63 3.63
54 1 5.445 5.445 3.63
55 2 5.445 3.63 5.445
56 1 3.63 5.445 5.445
57 2 3.63 3.63 7.26
58 1 5.445 5.445 7.26
59 2 5.445 3.63 9.075
60 1 3.63 5.445 9.075
61 1 3.63 7.26 0.0
62 2 5.445 9.075 0.0
63 2 5.445 7.26 1.815
64 1 3.63 9.075 1.815
65 1 3.63 7.26 3.63
66 2 5.445 9.075 3.63
67 2 5.445 7.26 5.445
68 1 3.63 9.075 5.445
69 2 3.63 7.26 7.26
70 2 5.445 9.075 7.26
71 2 5.445 7.26 9.075
72 2 3.63 9.075 9.075
73 2 7.26 0.0 0.0
74 1 9.075 1.815 0.0
75 1 9.075 0.0 1.815
76 2 7.26 1.815 1.815
77 2 7.26 0.0 3.63
78 2 9.075 1.815 3.63
79 1 9.075 0.0 5.445
80 1 7.26 1.815 5.445
81 2 7.26 0.0 7.26
82 1 9.075 1.815 7.26
83 1 9.075 0.0 9.075
84 2 7.26 1.815 9.075
85 1 7.26 3.63 0.0
86 1 9.075 5.445 0.0
87 2 9.075 3.63 1.815
88 2 7.26 5.445 1.815
89 2 7.26 3.63 3.63
90 2 9.075 5.445 3.63
91 1 9.075 3.63 5.445
92 1 7.26 5.445 5.445
93 1 7.26 3.63 7.26
94 1 9.075 5.445 7.26
95 2 9.075 3.63 9.075
96 2 7.26 5.445 9.075
97 1 7.26 7.26 0.0
98 1 9.075 9.075 0.0
99 2 9.075 7.26 1.815
100 2 7.26 9.075 1.815
101 2 7.26 7.26 3.63
102 2 9.075 9.075 3.63
103 2 9.075 7.26 5.445
104 1 7.26 9.075 5.445
105 2 7.26 7.26 7.26
106 2 9.075 9.075 7.26
107 2 9.075 7.26 9.075
108 2 7.26 9.075 9.075
109 2 10.89 0.0 0.0
110 2 12.705 1.815 0.0
111 2 12.705 0.0 1.815
112 2 10.89 1.815 1.815
113 1 10.89 0.0 3.63
114 1 12.705 1.815 3.63
115 1 12.705 0.0 5.445
116 2 10.89 1.815 5.445
117 1 10.89 0.0 7.26
118 1 12.705 1.815 7.26
119 1 12.705 0.0 9.075
120 1 10.89 1.815 9.075
121 1 10.89 3.63 0.0
122 2 12.705 5.445 0.0
123 2 12.705 3.63 1.815
124 2 10.89 5.445 1.815
125 1 10.89 3.63 3.63
126 2 12.705 5.445 3.63
127 2 12.705 3.63 5.445
128 2 10.89 5.445 5.445
129 1 10.89 3.63 7.26
130 1 12.705 5.445 7.26
131 2 12.705 3.63 9.075
132 2 10.89 5.445 9.075
133 2 10.89 7.26 0.0
134 1 12.705 9.075 0.0
135 2 12.705 7.26 1.815
136 1 10.89 9.075 1.815
137 2 10.89 7.26 3.63
138 2 12.705 9.075 3.63
139 1 12.705 7.26 5.445
140 1 10.89 9.075 5.445
141 2 10.89 7.26 7.26
142 2 12.705 9.075 7.26
143 2 12.705 7.26 9.075
144 1 10.89 9.075 9.075
145 2 14.52 0.0 0.0
146 1 16.335 1.815 0.0
147 1 16.335 0.0 1.815
148 1 14.52 1.815 1.815
149 1 14.52 0.0 3.63
150 2 16.335 1.815 3.63
151 1 16.335 0.0 5.445
152 2 14.52 1.815 5.445
153 1 14.52 0.0 7.26
154 1 16.335 1.815 7.26
155 2 16.335 0.0 9.075
156 1 14.52 1.815 9.075
157 1 14.52 3.63 0.0
158 2 16.335 5.445 0.0
159 2 16.335 3.63 1.815
160 2 14.52 5.445 1.815
161 1 14.52 3.63 3.63
162 2 16.335 5.445 3.63
163 1 16.335 3.63 5.445
164 2 14.52 5.445 5.445
165 2 14.52 3.63 7.26
166 1 16.335 5.445 7.26
167 2 16.335 3.63 9.075
168 2 14.52 5.445 9.075
169 2 14.52 7.26 0.0
170 2 16.335 9.075 0.0
171 1 16.335 7.26 1.815
172 1 14.52 9.075 1.815
173 1 14.52 7.26 3.63
174 1 16.335 9.075 3.63
175 1 16.335 7.26 5.445
176 2 14.52 9.075 5.445
177 1 14.52 7.26 7.26
178 1 16.335 9.075 7.26
179 1 16.335 7.26 9.075
180 2 14.52 9.075 9.075
181 1 18.15 0.0 0.0
182 1 19.965 1.815 0.0
183 1 19.965 0.0 1.815
184 2 18.15 1.815 1.815
185 2 18.15 0.0 3.63
186 2 19.965 1.815 3.63
187 2 19.965 0.0 5.445
188 1 18.15 1.815 5.445
189 1 18.15 0.0 7.26
190 1 19.965 1.815 7.26
191 2 19.965 0.0 9.075
192 1 18.15 1.815 9.075
193 1 18.15 3.63 0.0
194 1 19.965 5.445 0.0
195 1 19.965 3.63 1.815
196 2 18.15 5.445 1.815
197 1 18.15 3.63 3.63
198 1 19.965 5.445 3.63
199 2 19.965 3.63 5.445
200 1 18.15 5.445 5.445
201 2 18.15 3.63 7.26
202 1 19.965 5.445 7.26
203 1 19.965 3.63 9.075
204 2 18.15 5.445 9.075
205 2 18.15 7.26 0.0
206 1 19.965 9.075 0.0
207 1 19.965 7.26 1.815
208 2 18.15 9.075 1.815
209 2 18.15 7.26 3.63
210 2 19.965 9.075 3.63
211 2 19.965 7.26 5.445
212 2 18.15 9.075 5.445
213 1 18.15 7.26 7.26
214 1 19.965 9.075 7.26
215 2 19.965 7.26 9.075
216 1 18.15 9.075 9.075
217 2 21.78 0.0 0.0
218 2 23.595000000000002 1.815 0.0
219 1 23.595000000000002 0.0 1.815
220 2 21.78 1.815 1.815
221 2 21.78 0.0 3.63
222 1 23.595000000000002 1.815 3.63
223 2 23.595000000000002 0.0 5.445
224 2 21.78 1.815 5.445
225 1 21.78 0.0 7.26
226 2 23.595000000000002 1.815 7.26
227 2 23.595000000000002 0.0 9.075
228 2 21.78 1.815 9.075
229 2 21.78 3.63 0.0
230 1 23.595000000000002 5.445 0.0
231 2 23.595000000000002 3.63 1.815
232 2 21.78 5.445 1.815
233 2 21.78 3.63 3.63
234 1 23.595000000000002 5.445 3.63
235 1 23.595000000000002 3.63 5.445
236 1 21.78 5.445 5.445
237 2 21.78 3.63 7.26
238 2 23.595000000000002 5.445 7.26
239 1 23.595000000000002 3.63 9.075
240 1 21.78 5.445 9.075
241 2 21.78 7.26 0.0
242 1 23.595000000000002 9.075 0.0
243 1 23.595000000000002 7.26 1.815
244 2 21.78 9.075 1.815
245 1 21.78 7.26 3.63
246 2 23.595000000000002 9.075 3.63
247 2 23.595000000000002 7.26 5.445
248 1 21.78 9.075 5.445
249 1 21.78 7.26 7.26
250 2 23.595000000000002 9.075 7.26
251 2 23.595000000000002 7.26 9.075
252 2 21.78 9.075 9.075
253 2 25.41 0.0 0.0
254 1 27.225 1.815 0.0
255 2 27.225 0.0 1.815
256 1 25.41 1.815 1.815
257 2 25.41 0.0 3.63
258 1 27.225 1.815 3.63
259 2 27.225 0.0 5.445
260 2 25.41 1.815 5.445
261 2 25.41 0.0 7.26
262 1 27.225 1.815 7.26
263 2 27.225 0.0 9.075
264 2 25.41 1.815 9.075
265 1 25.41 3.63 0.0
266 2 27.225 5.445 0.0
267 1 27.225 3.63 1.815
268 2 25.41 5.445 1.815
269 1 25.41 3.63 3.63
270 1 27.225 5.445 3.63
271 2 27.225 3.63 5.445
272 2 25.41 5.445 5.445
273 2 25.41 3.63 7.26
274 1 27.225 5.445 7.26
275 1 27.225 3.63 9.075
276 2 25.41 5.445 9.075
277 1 25.41 7.26 0.0
278 1 27.225 9.075 0.0
279 1 27.225 7.26 1.815
280 1 25.41 9.075 1.815
281 2 25.41 7.26 3.63
282 1 27.225 9.075 3.63
283 1 27.225 7.26 5.445
284 1 25.41 9.075 5.445
285 1 25.41 7.26 7.26
286 2 27.225 9.075 7.26
287 2 27.225 7.26 9.075
288 1 25.41 9.075 9.075
289 2 29.04 0.0 0.0
290 1 30.855 1.815 0.0
291 1 30.855 0.0 1.815
292 1 29.04 1.815 1.815
293 1 29.04 0.0 3.63
294 2 30.855 1.815 3.63
295 1 30.855 0.0 5.445
296 1 29.04 1.815 5.445
297 2 29.04 0.0 7.26
298 1 30.855 1.815 7.26
299 1 30.855 0.0 9.075
300 1 29.04 1.815 9.075
301 2 29.04 3.63 0.0
302 1 30.855 5.445 0.0
303 2 30.855 3.63 1.815
304 2 29.04 5.445 1.815
305 1 29.04 3.63 3.63
306 2 30.855 5.445 3.63
307 1 30.855 3.63 5.445
308 2 29.04 5.445 5.445
309 1 29.04 3.63 7.26
310 2 30.855 5.445 7.26
311 1 30.855 3.63 9.075
312 1 29.04 5.445 9.075
313 2 29.04 7.26 0.0
314 1 30.855 9.075 0.0
315 2 30.855 7.26 1.815
316 2 29.04 9.075 1.815
317 1 29.04 7.26 3.63
318 1 30.855 9.075 3.63
319 2 30.855 7.26 5.445
320 2 29.04 9.075 5.445
321 2 29.04 7.26 7.26
322 2 30.855 9.075 7.26
323 1 30.855 7.26 9.075
324 2 29.04 9.075 9.075
