compute ptm all ptm/atom default 0.1
compute centro all centro/atom 12
reset_timestep 0
thermo 10
thermo_style custom step atoms temp press etotal enthalpy
dump positionOutput all custom 10 pos.XYZ type id x y z
dump PTMOutput all custom 10 atomParameters.data id type x c_ptm[1] c_centro
change_box all x final -7.26 136.125 y final 0 32.67 z final 0 32.67
  triclinic box = (-7.26 0 0) to (136.125 32.67 32.67) with tilt (0 0 0)
  triclinic box = (-7.26 0 0) to (136.125 32.67 32.67) with tilt (0 0 0)
  triclinic box = (-7.26 0 0) to (136.125 32.67 32.67) with tilt (0 0 0)
region liqRegion block 54.449999999999996 108.89999999999999 0 32.67 0 32.67
create_atoms 2 random 4860 1 liqRegion
Created 4860 atoms
  create_atoms CPU = 0.000996 secs
group liqAtoms region liqRegion
4860 atoms in group liqAtoms
region liqRegion1 block 54.449999999999996 98.00999999999999 0 32.67 0 32.67
group liqRegion1Atoms region liqRegion1
3869 atoms in group liqRegion1Atoms
region liqRegion2 block 98.00999999999999 106.1775 0 32.67 0 32.67
group liqRegion2Atoms region liqRegion2
756 atoms in group liqRegion2Atoms
region liqRegion3 block 62.61749999999999 108.89999999999999 0 32.67 0 32.67
group liqRegion3Atoms region liqRegion3
4131 atoms in group liqRegion3Atoms
region solRegion1 block 0 2.7225 0 32.67 0 32.67
group solRegion1Atoms region solRegion1
324 atoms in group solRegion1Atoms
region solRegion2 block 2.7225 10.89 0 32.67 0 32.67
group solRegion2Atoms region solRegion2
810 atoms in group solRegion2Atoms
region solRegion3 block 8.167499999999999 54.449999999999996 0 32.67 0 32.67
group solRegion3Atoms region solRegion3
4050 atoms in group solRegion3Atoms
fix liqNullForce liqAtoms setforce 0 0 0
fix solConstT1 solRegion3Atoms nvt temp 3000 3000 0.1
fix solConstT2 solRegion2Atoms nvt temp 3000 3000 0.1
run 500
WARNING: One or more atoms are time integrated more than once (../modify.cpp:289)
Neighbor list info ...
  update every 1 steps, delay 10 steps, check yes
  max neighbors/atom: 2000, page size: 100000
  master list distance cutoff = 6.44433
  ghost atom cutoff = 6.44433
  binsize = 3.22217, bins = 45 11 11
  3 neighbor lists, perpetual/occasional/extra = 1 2 0
  (1) pair eam/alloy, perpetual
      attributes: half, newton on
      pair build: half/bin/newton/tri
      stencil: half/bin/3d/newton/tri
      bin: standard
  (2) compute ptm/atom, occasional
      attributes: full, newton on
      pair build: full/bin/atomonly
      stencil: full/bin/3d
      bin: standard
  (3) compute centro/atom, occasional
      attributes: full, newton on
      pair build: full/bin/atomonly
      stencil: full/bin/3d
      bin: standard
Per MPI rank memory allocation (min/avg/max) = 21.24 | 21.24 | 21.24 Mbytes
Step Atoms Temp Press TotEng Enthalpy 
       0     9720            0    800711.35    62580.212    139063.69 
      10     9720    2.5453781    800625.68    62580.232    139055.52 
      20     9720    7.6366384    800434.61    62580.373    139037.42 
      30     9720    11.604766    800222.38    62580.625     139017.4 
      40     9720    13.663749    800057.66    62581.001    139002.04 
      50     9720    14.880315    799895.87    62581.473    138987.05 
      60     9720    15.939575    799756.64    62582.012    138974.29 
      70     9720     16.85132    799486.38    62582.613    138949.08 
      80     9720    17.589525    799426.14    62583.269    138943.98 
      90     9720    18.269788    799277.09    62583.974    138930.45 
     100     9720    19.300698    798491.35    62584.731    138856.15 
     110     9720    20.801071    798275.28    62585.557    138836.34 
     120     9720    22.132994    798179.43    62586.463    138828.09 
     130     9720    22.781462     797870.2    62587.434    138799.53 
     140     9720    23.351922    797798.39    62588.446    138793.68 
     150     9720    24.970732    797702.22    62589.516    138785.56 
     160     9720    27.842411    797388.67    62590.704     138756.8 
     170     9720    31.070971    797328.17    62592.054    138752.37 
     180     9720    33.452704    797122.39    62593.552    138734.21 
     190     9720    34.059685    797105.87    62595.136    138734.22 
     200     9720    33.370579    796942.42    62596.732     138720.2 
     210     9720    34.911933    796780.02    62598.353    138706.31 
     220     9720    38.771759    796347.18    62600.131    138666.74 
     230     9720    40.946283    795804.06    62602.082    138616.82 
     240     9720    41.868923    795688.91    62604.124    138607.86 
     250     9720    42.853966    795609.62     62606.23    138602.39 
     260     9720    42.995356    795555.18    62608.386    138599.35 
     270     9720    43.423927    795594.24    62610.568    138605.26 
     280     9720     45.28835    795532.98    62612.829    138601.67 
     290     9720    47.115001    795601.67    62615.208    138610.61 
     300     9720    49.593483    795798.93    62617.701    138631.95 
     310     9720    53.127698    795901.71    62620.364    138644.43 
     320     9720    56.185001    795865.23    62623.232    138643.81 
     330     9720    57.028189    795756.11     62626.23    138636.38 
     340     9720    58.586013    795781.65    62629.279    138641.87 
     350     9720    62.470107    795469.37    62632.503    138615.27 
     360     9720    61.998213     795277.6    62635.875    138600.32 
     370     9720    58.707628    795410.81    62639.143    138616.31 
     380     9720    60.342956    795500.73    62642.361    138628.12 
     390     9720    66.370814    795400.34    62645.816    138621.99 
     400     9720    71.900237    795443.55    62649.625    138629.92 
     410     9720    73.668022    795397.45     62653.67    138629.57 
     420     9720    71.140792    795431.51    62657.708    138636.86 
     430     9720    69.528291    795503.76    62661.633    138647.68 
     440     9720    72.304022    795267.07    62665.606    138629.05 
     450     9720     75.61206    795208.08    62669.807    138627.61 
     460     9720    78.196163    795057.88    62674.175    138617.63 
     470     9720    83.801949    795000.08     62678.79    138616.73 
     480     9720    91.065658    794787.16    62683.774    138601.37 
     490     9720    96.288174    794874.29    62689.163    138615.09 
     500     9720      99.3012     794752.4    62694.772    138609.05 
Loop time of 24.664 on 1 procs for 500 steps with 9720 atoms

Performance: 1.752 ns/day, 13.702 hours/ns, 20.272 timesteps/s
99.4% CPU use with 1 MPI tasks x no OpenMP threads

MPI task timing breakdown:
Section |  min time  |  avg time  |  max time  |%varavg| %total
---------------------------------------------------------------
Pair    | 10.134     | 10.134     | 10.134     |   0.0 | 41.09
Neigh   | 1.0793     | 1.0793     | 1.0793     |   0.0 |  4.38
Comm    | 0.041564   | 0.041564   | 0.041564   |   0.0 |  0.17
Output  | 13.329     | 13.329     | 13.329     |   0.0 | 54.04
Modify  | 0.068686   | 0.068686   | 0.068686   |   0.0 |  0.28
Other   |            | 0.01101    |            |       |  0.04

Nlocal:    9720 ave 9720 max 9720 min
Histogram: 1 0 0 0 0 0 0 0 0 0
Nghost:    9243 ave 9243 max 9243 min
Histogram: 1 0 0 0 0 0 0 0 0 0
Neighs:    425815 ave 425815 max 425815 min
Histogram: 1 0 0 0 0 0 0 0 0 0
FullNghs:  851630 ave 851630 max 851630 min
Histogram: 1 0 0 0 0 0 0 0 0 0

Total # of neighbors = 851630
Ave neighs/atom = 87.6163
Neighbor list builds = 50
Dangerous builds = 50
unfix liqNullForce
unfix solConstT1
unfix solConstT2
fix liquify liqAtoms nvt temp 2000 2000 0.1
run 10
Per MPI rank memory allocation (min/avg/max) = 21.24 | 21.24 | 21.24 Mbytes
Step Atoms Temp Press TotEng Enthalpy 
     500     9720      99.3012     794752.4    62694.772    138609.05 
     510     9720    53600.399    911989.85     56921.71    144034.44 
Loop time of 0.489769 on 1 procs for 10 steps with 9720 atoms

Performance: 1.764 ns/day, 13.605 hours/ns, 20.418 timesteps/s
99.5% CPU use with 1 MPI tasks x no OpenMP threads

MPI task timing breakdown:
Section |  min time  |  avg time  |  max time  |%varavg| %total
---------------------------------------------------------------
Pair    | 0.20053    | 0.20053    | 0.20053    |   0.0 | 40.94
Neigh   | 0.021216   | 0.021216   | 0.021216   |   0.0 |  4.33
Comm    | 0.000861   | 0.000861   | 0.000861   |   0.0 |  0.18
Output  | 0.26565    | 0.26565    | 0.26565    |   0.0 | 54.24
Modify  | 0.001295   | 0.001295   | 0.001295   |   0.0 |  0.26
Other   |            | 0.000214   |            |       |  0.04

Nlocal:    9720 ave 9720 max 9720 min
Histogram: 1 0 0 0 0 0 0 0 0 0
Nghost:    9239 ave 9239 max 9239 min
Histogram: 1 0 0 0 0 0 0 0 0 0
Neighs:    425735 ave 425735 max 425735 min
Histogram: 1 0 0 0 0 0 0 0 0 0
FullNghs:  851470 ave 851470 max 851470 min
Histogram: 1 0 0 0 0 0 0 0 0 0

Total # of neighbors = 851470
Ave neighs/atom = 87.5998
Neighbor list builds = 1
Dangerous builds = 1
fix solConstE solRegion3Atoms nve
fix liqConstE liqRegion1Atoms nve
fix solConstT solRegion2Atoms langevin 3000 3000 0.01 3746823
fix liqConstT liqRegion2Atoms langevin 2000.0 2000.0 0.01 37496823
fix solNullForce solRegion1Atoms setforce 0 0 0
fix liqNullForce liqRegion3Atoms setforce 0 0 0
run 1000
WARNING: One or more atoms are time integrated more than once (../modify.cpp:289)
Per MPI rank memory allocation (min/avg/max) = 21.24 | 21.24 | 21.24 Mbytes
Step Atoms Temp Press TotEng Enthalpy 
     510     9720    53600.399    911989.85     56921.71    144034.44 
     520     9720    44609.593    973057.28    76073.706    169019.56 
     530     9720    37353.602    1017993.3    85869.614    183107.74 
     540     9720    31496.604    985743.17    81993.355    176150.96 
     550     9720    26829.091    946353.21    72826.039    163221.14 
     560     9720    22777.107    929938.32    70646.623    159473.78 
     570     9720    19816.391    910774.16    68683.926    155680.54 
     580     9720    17682.048    889863.72    67242.203    152241.46 
     590     9720    15556.594    889262.54    65214.442    150156.28 
     600     9720    14093.584    881756.28    66375.046    150599.89 
     610     9720    13051.652    871291.41    63160.976    146386.22 
     620     9720    12353.874    860968.17     59914.61    142153.78 
     630     9720     11560.26    848536.56    57480.229    138531.94 
     640     9720    10787.091    852203.01    58365.133    139767.06 
     650     9720    10159.921    846621.68    56622.492     137491.3 
     660     9720    9804.9947    839188.23    55169.606    135328.37 
     670     9720    9344.5576    836847.95        55183    135118.22 
     680     9720    9066.0712    832084.53    55145.797    134626.02 
     690     9720    8672.0463    837906.21     55178.45    135214.76 
     700     9720    8283.0767    836973.25    54662.164    134609.36 
     710     9720    7989.8176    835302.81    53336.863    133124.49 
     720     9720    7891.8823    833799.83    53549.106    133193.17 
     730     9720    7612.9339    835677.01    54213.662    134037.04 
     740     9720    7512.2982    832723.43    53885.136    133426.39 
     750     9720    7298.7359    830620.09     54133.14    133473.48 
     760     9720    7192.2781    829345.68    54162.081    133380.69 
     770     9720    6944.2148    830742.64    53756.047    133108.09 
     780     9720    6846.6973    826087.95    53065.537    131972.97 
     790     9720     6701.414    822412.72     51925.18    130481.56 
     800     9720    6648.0308    816599.43    50468.674    128469.77 
     810     9720    6520.6962    813247.02    49057.291    126738.17 
     820     9720    6480.5828    810711.59    48407.857    125846.55 
     830     9720    6377.2562    811199.07    48208.265    125693.52 
     840     9720    6318.5851    807747.65    48334.176    125489.76 
     850     9720    6263.0804    805709.69    48627.549    125588.46 
     860     9720    6105.5306    807249.39    48760.551    125868.54 
     870     9720    6028.2003    806976.01    48378.253    125460.13 
     880     9720     6002.191    807604.02    47971.269    125113.13 
     890     9720    5961.1045    807181.15    47741.799    124843.27 
     900     9720    5919.3588     806599.3    47393.543    124439.43 
     910     9720    5801.6556    807157.59    47350.032    124449.25 
     920     9720    5836.8736    806441.13    47665.385    124696.17 
     930     9720    5755.4245    806854.79    47987.428    125057.72 
     940     9720    5704.9105    809914.29    48271.996    125634.53 
     950     9720    5633.5942    813329.17    48338.791    126027.51 
     960     9720    5593.4354    813325.63    48325.193    126013.58 
     970     9720    5563.5942    811936.23    48259.518    125815.19 
     980     9720    5507.0126    811015.18    48031.174    125498.87 
     990     9720    5475.1531    809797.56    47539.889    124891.27 
    1000     9720     5459.255    809023.54    46930.475    124207.93 
    1010     9720    5431.0733    807904.34    46382.092    123552.64 
    1020     9720    5378.4334    806360.59    45912.799    122935.89 
    1030     9720    5379.0211    805680.35    45504.764    122462.88 
    1040     9720    5330.7419    807119.47    45146.284    122241.86 
    1050     9720    5313.8681    806855.25    44850.017    121920.35 
    1060     9720    5325.0131    806435.88    44573.006    121603.29 
    1070     9720    5303.8352    803652.69    44384.258    121148.69 
    1080     9720     5187.596    804480.82    44259.342    121102.88 
    1090     9720     5082.139    804161.23    44171.206    120984.21 
    1100     9720    4920.6294    804705.65    44114.138    120979.15 
    1110     9720    4796.0182    804001.21    44016.098    120813.82 
    1120     9720    4679.2617    803178.77    43862.579    120581.74 
    1130     9720    4479.5118    803206.62     43685.41    120407.23 
    1140     9720    4393.4594    801161.24    43518.554       120045 
    1150     9720    4300.8111    801292.76    43402.307    119941.32 
    1160     9720    4148.4464    800885.88    43320.806    119820.95 
    1170     9720    4041.1593     801057.5    43297.256     119813.8 
    1180     9720    3888.1516    802651.35    43329.901    119998.68 
    1190     9720    3783.8458    806164.56    43430.384    120434.75 
    1200     9720    3760.2314     806713.1    43542.054    120598.81 
    1210     9720    3708.0611    806240.37    43677.434    120689.04 
    1220     9720     3617.928    807079.84    43805.765    120897.56 
    1230     9720    3539.2181    807900.29     43895.66    121065.82 
    1240     9720    3502.0974    806602.38    43943.043    120989.23 
    1250     9720    3481.7791    806285.31    43957.738    120973.64 
    1260     9720    3464.7055    806113.23    43934.649    120934.11 
    1270     9720    3473.9444    806425.21    43870.801    120900.06 
    1280     9720    3386.0066    807225.88    43735.373    120841.11 
    1290     9720    3413.9803    807003.09    43592.497    120676.96 
    1300     9720    3362.8255    804717.66     43470.92    120337.08 
    1310     9720    3340.1427    805889.92    43335.356    120313.49 
    1320     9720    3354.1235    805469.98     43194.31    120132.33 
    1330     9720    3348.1881    806099.44    43056.525    120054.67 
    1340     9720    3335.4354    805992.86    42930.255    119918.22 
    1350     9720    3367.5967    804229.23    42827.849    119647.35 
    1360     9720    3430.7979    803320.78    42720.682    119453.41 
    1370     9720    3442.4226    802588.01    42631.875    119294.61 
    1380     9720     3471.144    802329.16    42552.969    119190.98 
    1390     9720    3446.8877    801628.22    42470.562    119041.62 
    1400     9720    3509.0703    799000.06    42422.773    118742.79 
    1410     9720    3532.1904    799183.52    42402.427    118739.97 
    1420     9720    3542.6502    799897.62    42444.766    118850.51 
    1430     9720    3588.7085    796189.27    42465.756    118517.29 
    1440     9720    3602.9215    794565.26    42490.348    118386.75 
    1450     9720    3610.8927    795289.39    42527.159    118492.73 
    1460     9720    3633.6715    791751.79    42460.506    118088.17 
    1470     9720    3734.5102    788727.88     42353.21    117692.03 
    1480     9720    3736.5765    786783.45    42318.824    117471.92 
    1490     9720    3755.3923     786303.7    42321.889    117429.15 
    1500     9720    3793.1177    785008.12    42345.909    117329.42 
    1510     9720    3824.1216     784108.6    42389.703    117287.29 
Loop time of 52.1808 on 1 procs for 1000 steps with 9720 atoms

Performance: 1.656 ns/day, 14.495 hours/ns, 19.164 timesteps/s
97.5% CPU use with 1 MPI tasks x no OpenMP threads

MPI task timing breakdown:
Section |  min time  |  avg time  |  max time  |%varavg| %total
---------------------------------------------------------------
Pair    | 21.724     | 21.724     | 21.724     |   0.0 | 41.63
Neigh   | 2.2708     | 2.2708     | 2.2708     |   0.0 |  4.35
Comm    | 0.087448   | 0.087448   | 0.087448   |   0.0 |  0.17
Output  | 27.81      | 27.81      | 27.81      |   0.0 | 53.29
Modify  | 0.26292    | 0.26292    | 0.26292    |   0.0 |  0.50
Other   |            | 0.02586    |            |       |  0.05

Nlocal:    9720 ave 9720 max 9720 min
Histogram: 1 0 0 0 0 0 0 0 0 0
Nghost:    9145 ave 9145 max 9145 min
Histogram: 1 0 0 0 0 0 0 0 0 0
Neighs:    442929 ave 442929 max 442929 min
Histogram: 1 0 0 0 0 0 0 0 0 0
FullNghs:  885858 ave 885858 max 885858 min
Histogram: 1 0 0 0 0 0 0 0 0 0

Total # of neighbors = 885858
Ave neighs/atom = 91.1377
Neighbor list builds = 100
Dangerous builds = 100
Total wall time: 0:01:25
