ITEM: TIMESTEP
0
ITEM: NUMBER OF ATOMS
648
ITEM: BOX BOUNDS xy xz yz pp pp pp
-7.2599999999999998e+00 8.1674999999999997e+01 0.0000000000000000e+00
0.0000000000000000e+00 1.0890000000000001e+01 0.0000000000000000e+00
0.0000000000000000e+00 1.0890000000000001e+01 0.0000000000000000e+00
ITEM: ATOMS type id x y z c_ptm[1] c_centro c_cna 
1 1 0 0 0 0 19.7653 5 
1 2 1.815 1.815 0 1 1.57772e-29 5 
2 3 1.815 0 1.815 1 1.57772e-29 5 
2 4 0 1.815 1.815 0 19.7653 5 
2 5 0 0 3.63 0 19.7653 5 
2 6 1.815 1.815 3.63 1 1.26218e-29 5 
1 7 1.815 0 5.445 1 1.57772e-29 5 
2 8 0 1.815 5.445 0 13.1769 5 
2 9 0 0 7.26 0 19.7653 5 
1 10 1.815 1.815 7.26 1 1.26218e-29 5 
1 11 1.815 0 9.075 1 1.57772e-29 5 
1 12 0 1.815 9.075 0 19.7653 5 
2 13 0 3.63 0 0 19.7653 5 
2 14 1.815 5.445 0 1 1.57772e-29 5 
1 15 1.815 3.63 1.815 1 1.26218e-29 5 
2 16 0 5.445 1.815 0 19.7653 5 
1 17 0 3.63 3.63 0 13.1769 5 
2 18 1.815 5.445 3.63 1 1.26218e-29 5 
2 19 1.815 3.63 5.445 1 1.26218e-29 5 
1 20 0 5.445 5.445 0 13.1769 5 
2 21 0 3.63 7.26 0 19.7653 5 
1 22 1.815 5.445 7.26 1 1.26218e-29 5 
1 23 1.815 3.63 9.075 1 1.26218e-29 5 
2 24 0 5.445 9.075 0 19.7653 5 
1 25 0 7.26 0 0 19.7653 5 
2 26 1.815 9.075 0 1 1.57772e-29 5 
2 27 1.815 7.26 1.815 1 1.26218e-29 5 
1 28 0 9.075 1.815 0 19.7653 5 
1 29 0 7.26 3.63 0 19.7653 5 
2 30 1.815 9.075 3.63 1 1.26218e-29 5 
2 31 1.815 7.26 5.445 1 1.26218e-29 5 
2 32 0 9.075 5.445 0 19.7653 5 
1 33 0 7.26 7.26 0 19.7653 5 
2 34 1.815 9.075 7.26 1 1.26218e-29 5 
1 35 1.815 7.26 9.075 1 1.26218e-29 5 
1 36 0 9.075 9.075 0 19.7653 5 
2 37 3.63 0 0 1 6.31089e-30 5 
1 38 5.445 1.815 0 1 5.36425e-29 5 
1 39 5.445 0 1.815 1 5.36425e-29 5 
1 40 3.63 1.815 1.815 1 0 5 
2 41 3.63 0 3.63 1 3.15544e-30 5 
1 42 5.445 1.815 3.63 1 5.04871e-29 5 
2 43 5.445 0 5.445 1 5.36425e-29 5 
1 44 3.63 1.815 5.445 1 0 5 
2 45 3.63 0 7.26 1 3.15544e-30 5 
2 46 5.445 1.815 7.26 1 5.04871e-29 5 
2 47 5.445 0 9.075 1 5.36425e-29 5 
1 48 3.63 1.815 9.075 1 0 5 
2 49 3.63 3.63 0 1 3.15544e-30 5 
1 50 5.445 5.445 0 1 5.36425e-29 5 
2 51 5.445 3.63 1.815 1 5.04871e-29 5 
2 52 3.63 5.445 1.815 1 0 5 
1 53 3.63 3.63 3.63 1 0 5 
1 54 5.445 5.445 3.63 1 5.04871e-29 5 
2 55 5.445 3.63 5.445 1 5.04871e-29 5 
1 56 3.63 5.445 5.445 1 0 5 
2 57 3.63 3.63 7.26 1 0 5 
1 58 5.445 5.445 7.26 1 5.04871e-29 5 
2 59 5.445 3.63 9.075 1 5.04871e-29 5 
1 60 3.63 5.445 9.075 1 0 5 
1 61 3.63 7.26 0 1 3.15544e-30 5 
2 62 5.445 9.075 0 1 5.36425e-29 5 
2 63 5.445 7.26 1.815 1 5.04871e-29 5 
1 64 3.63 9.075 1.815 1 0 5 
1 65 3.63 7.26 3.63 1 0 5 
2 66 5.445 9.075 3.63 1 5.04871e-29 5 
2 67 5.445 7.26 5.445 1 5.04871e-29 5 
1 68 3.63 9.075 5.445 1 0 5 
2 69 3.63 7.26 7.26 1 0 5 
2 70 5.445 9.075 7.26 1 5.04871e-29 5 
2 71 5.445 7.26 9.075 1 5.04871e-29 5 
2 72 3.63 9.075 9.075 1 0 5 
2 73 7.26 0 0 1 5.6798e-29 5 
1 74 9.075 1.815 0 1 5.36425e-29 5 
1 75 9.075 0 1.815 1 5.36425e-29 5 
2 76 7.26 1.815 1.815 1 5.04871e-29 5 
2 77 7.26 0 3.63 1 5.36425e-29 5 
2 78 9.075 1.815 3.63 1 5.04871e-29 5 
1 79 9.075 0 5.445 1 5.36425e-29 5 
1 80 7.26 1.815 5.445 1 5.04871e-29 5 
2 81 7.26 0 7.26 1 5.36425e-29 5 
1 82 9.075 1.815 7.26 1 5.04871e-29 5 
1 83 9.075 0 9.075 1 5.36425e-29 5 
2 84 7.26 1.815 9.075 1 5.04871e-29 5 
1 85 7.26 3.63 0 1 5.36425e-29 5 
1 86 9.075 5.445 0 1 5.36425e-29 5 
2 87 9.075 3.63 1.815 1 5.04871e-29 5 
2 88 7.26 5.445 1.815 1 5.04871e-29 5 
2 89 7.26 3.63 3.63 1 5.04871e-29 5 
2 90 9.075 5.445 3.63 1 5.04871e-29 5 
1 91 9.075 3.63 5.445 1 5.04871e-29 5 
1 92 7.26 5.445 5.445 1 5.04871e-29 5 
1 93 7.26 3.63 7.26 1 5.04871e-29 5 
1 94 9.075 5.445 7.26 1 5.04871e-29 5 
2 95 9.075 3.63 9.075 1 5.04871e-29 5 
2 96 7.26 5.445 9.075 1 5.04871e-29 5 
1 97 7.26 7.26 0 1 5.36425e-29 5 
1 98 9.075 9.075 0 1 5.36425e-29 5 
2 99 9.075 7.26 1.815 1 5.04871e-29 5 
2 100 7.26 9.075 1.815 1 5.04871e-29 5 
2 101 7.26 7.26 3.63 1 5.04871e-29 5 
2 102 9.075 9.075 3.63 1 5.04871e-29 5 
2 103 9.075 7.26 5.445 1 5.04871e-29 5 
1 104 7.26 9.075 5.445 1 5.04871e-29 5 
2 105 7.26 7.26 7.26 1 5.04871e-29 5 
2 106 9.075 9.075 7.26 1 5.04871e-29 5 
2 107 9.075 7.26 9.075 1 5.04871e-29 5 
2 108 7.26 9.075 9.075 1 5.04871e-29 5 
2 109 10.89 0 0 1 8.14104e-28 5 
2 110 12.705 1.815 0 1 8.10949e-28 5 
2 111 12.705 0 1.815 1 8.10949e-28 5 
2 112 10.89 1.815 1.815 1 8.07794e-28 5 
1 113 10.89 0 3.63 1 8.10949e-28 5 
1 114 12.705 1.815 3.63 1 8.07794e-28 5 
1 115 12.705 0 5.445 1 8.10949e-28 5 
2 116 10.89 1.815 5.445 1 8.07794e-28 5 
1 117 10.89 0 7.26 1 8.10949e-28 5 
1 118 12.705 1.815 7.26 1 8.07794e-28 5 
1 119 12.705 0 9.075 1 8.10949e-28 5 
1 120 10.89 1.815 9.075 1 8.07794e-28 5 
1 121 10.89 3.63 0 1 8.10949e-28 5 
2 122 12.705 5.445 0 1 8.10949e-28 5 
2 123 12.705 3.63 1.815 1 8.07794e-28 5 
2 124 10.89 5.445 1.815 1 8.07794e-28 5 
1 125 10.89 3.63 3.63 1 8.07794e-28 5 
2 126 12.705 5.445 3.63 1 8.07794e-28 5 
2 127 12.705 3.63 5.445 1 8.07794e-28 5 
2 128 10.89 5.445 5.445 1 8.07794e-28 5 
1 129 10.89 3.63 7.26 1 8.07794e-28 5 
1 130 12.705 5.445 7.26 1 8.07794e-28 5 
2 131 12.705 3.63 9.075 1 8.07794e-28 5 
2 132 10.89 5.445 9.075 1 8.07794e-28 5 
2 133 10.89 7.26 0 1 8.10949e-28 5 
1 134 12.705 9.075 0 1 8.10949e-28 5 
2 135 12.705 7.26 1.815 1 8.07794e-28 5 
1 136 10.89 9.075 1.815 1 8.07794e-28 5 
2 137 10.89 7.26 3.63 1 8.07794e-28 5 
2 138 12.705 9.075 3.63 1 8.07794e-28 5 
1 139 12.705 7.26 5.445 1 8.07794e-28 5 
1 140 10.89 9.075 5.445 1 8.07794e-28 5 
2 141 10.89 7.26 7.26 1 8.07794e-28 5 
2 142 12.705 9.075 7.26 1 8.07794e-28 5 
2 143 12.705 7.26 9.075 1 8.07794e-28 5 
1 144 10.89 9.075 9.075 1 8.07794e-28 5 
2 145 14.52 0 0 1 5.6798e-29 5 
1 146 16.335 1.815 0 1 2.05104e-28 5 
1 147 16.335 0 1.815 1 2.05104e-28 5 
1 148 14.52 1.815 1.815 1 5.04871e-29 5 
1 149 14.52 0 3.63 1 5.36425e-29 5 
2 150 16.335 1.815 3.63 1 2.01948e-28 5 
1 151 16.335 0 5.445 1 2.05104e-28 5 
2 152 14.52 1.815 5.445 1 5.04871e-29 5 
1 153 14.52 0 7.26 1 5.36425e-29 5 
1 154 16.335 1.815 7.26 1 2.01948e-28 5 
2 155 16.335 0 9.075 1 2.05104e-28 5 
1 156 14.52 1.815 9.075 1 5.04871e-29 5 
1 157 14.52 3.63 0 1 5.36425e-29 5 
2 158 16.335 5.445 0 1 2.05104e-28 5 
2 159 16.335 3.63 1.815 1 2.01948e-28 5 
2 160 14.52 5.445 1.815 1 5.04871e-29 5 
1 161 14.52 3.63 3.63 1 5.04871e-29 5 
2 162 16.335 5.445 3.63 1 2.01948e-28 5 
1 163 16.335 3.63 5.445 1 2.01948e-28 5 
2 164 14.52 5.445 5.445 1 5.04871e-29 5 
2 165 14.52 3.63 7.26 1 5.04871e-29 5 
1 166 16.335 5.445 7.26 1 2.01948e-28 5 
2 167 16.335 3.63 9.075 1 2.01948e-28 5 
2 168 14.52 5.445 9.075 1 5.04871e-29 5 
2 169 14.52 7.26 0 1 5.36425e-29 5 
2 170 16.335 9.075 0 1 2.05104e-28 5 
1 171 16.335 7.26 1.815 1 2.01948e-28 5 
1 172 14.52 9.075 1.815 1 5.04871e-29 5 
1 173 14.52 7.26 3.63 1 5.04871e-29 5 
1 174 16.335 9.075 3.63 1 2.01948e-28 5 
1 175 16.335 7.26 5.445 1 2.01948e-28 5 
2 176 14.52 9.075 5.445 1 5.04871e-29 5 
1 177 14.52 7.26 7.26 1 5.04871e-29 5 
1 178 16.335 9.075 7.26 1 2.01948e-28 5 
1 179 16.335 7.26 9.075 1 2.01948e-28 5 
2 180 14.52 9.075 9.075 1 5.04871e-29 5 
1 181 18.15 0 0 1 1.82385e-27 5 
1 182 19.965 1.815 0 1 8.10949e-28 5 
1 183 19.965 0 1.815 1 8.10949e-28 5 
2 184 18.15 1.815 1.815 1 1.81754e-27 5 
2 185 18.15 0 3.63 1 1.82069e-27 5 
2 186 19.965 1.815 3.63 1 8.07794e-28 5 
2 187 19.965 0 5.445 1 8.10949e-28 5 
1 188 18.15 1.815 5.445 1 1.81754e-27 5 
1 189 18.15 0 7.26 1 1.82069e-27 5 
1 190 19.965 1.815 7.26 1 8.07794e-28 5 
2 191 19.965 0 9.075 1 8.10949e-28 5 
1 192 18.15 1.815 9.075 1 1.81754e-27 5 
1 193 18.15 3.63 0 1 1.82069e-27 5 
1 194 19.965 5.445 0 1 8.10949e-28 5 
1 195 19.965 3.63 1.815 1 8.07794e-28 5 
2 196 18.15 5.445 1.815 1 1.81754e-27 5 
1 197 18.15 3.63 3.63 1 1.81754e-27 5 
1 198 19.965 5.445 3.63 1 8.07794e-28 5 
2 199 19.965 3.63 5.445 1 8.07794e-28 5 
1 200 18.15 5.445 5.445 1 1.81754e-27 5 
2 201 18.15 3.63 7.26 1 1.81754e-27 5 
1 202 19.965 5.445 7.26 1 8.07794e-28 5 
1 203 19.965 3.63 9.075 1 8.07794e-28 5 
2 204 18.15 5.445 9.075 1 1.81754e-27 5 
2 205 18.15 7.26 0 1 1.82069e-27 5 
1 206 19.965 9.075 0 1 8.10949e-28 5 
1 207 19.965 7.26 1.815 1 8.07794e-28 5 
2 208 18.15 9.075 1.815 1 1.81754e-27 5 
2 209 18.15 7.26 3.63 1 1.81754e-27 5 
2 210 19.965 9.075 3.63 1 8.07794e-28 5 
2 211 19.965 7.26 5.445 1 8.07794e-28 5 
2 212 18.15 9.075 5.445 1 1.81754e-27 5 
1 213 18.15 7.26 7.26 1 1.81754e-27 5 
1 214 19.965 9.075 7.26 1 8.07794e-28 5 
2 215 19.965 7.26 9.075 1 8.07794e-28 5 
1 216 18.15 9.075 9.075 1 1.81754e-27 5 
2 217 21.78 0 0 1 8.14104e-28 5 
2 218 23.595 1.815 0 1 1.82069e-27 5 
1 219 23.595 0 1.815 1 1.82069e-27 5 
2 220 21.78 1.815 1.815 1 8.07794e-28 5 
2 221 21.78 0 3.63 1 8.10949e-28 5 
1 222 23.595 1.815 3.63 1 1.81754e-27 5 
2 223 23.595 0 5.445 1 1.82069e-27 5 
2 224 21.78 1.815 5.445 1 8.07794e-28 5 
1 225 21.78 0 7.26 1 8.10949e-28 5 
2 226 23.595 1.815 7.26 1 1.81754e-27 5 
2 227 23.595 0 9.075 1 1.82069e-27 5 
2 228 21.78 1.815 9.075 1 8.07794e-28 5 
2 229 21.78 3.63 0 1 8.10949e-28 5 
1 230 23.595 5.445 0 1 1.82069e-27 5 
2 231 23.595 3.63 1.815 1 1.81754e-27 5 
2 232 21.78 5.445 1.815 1 8.07794e-28 5 
2 233 21.78 3.63 3.63 1 8.07794e-28 5 
1 234 23.595 5.445 3.63 1 1.81754e-27 5 
1 235 23.595 3.63 5.445 1 1.81754e-27 5 
1 236 21.78 5.445 5.445 1 8.07794e-28 5 
2 237 21.78 3.63 7.26 1 8.07794e-28 5 
2 238 23.595 5.445 7.26 1 1.81754e-27 5 
1 239 23.595 3.63 9.075 1 1.81754e-27 5 
1 240 21.78 5.445 9.075 1 8.07794e-28 5 
2 241 21.78 7.26 0 1 8.10949e-28 5 
1 242 23.595 9.075 0 1 1.82069e-27 5 
1 243 23.595 7.26 1.815 1 1.81754e-27 5 
2 244 21.78 9.075 1.815 1 8.07794e-28 5 
1 245 21.78 7.26 3.63 1 8.07794e-28 5 
2 246 23.595 9.075 3.63 1 1.81754e-27 5 
2 247 23.595 7.26 5.445 1 1.81754e-27 5 
1 248 21.78 9.075 5.445 1 8.07794e-28 5 
1 249 21.78 7.26 7.26 1 8.07794e-28 5 
2 250 23.595 9.075 7.26 1 1.81754e-27 5 
2 251 23.595 7.26 9.075 1 1.81754e-27 5 
2 252 21.78 9.075 9.075 1 8.07794e-28 5 
2 253 25.41 0 0 1 2.08259e-28 5 
1 254 27.225 1.815 0 1 3.15544e-30 5 
2 255 27.225 0 1.815 1 3.15544e-30 5 
1 256 25.41 1.815 1.815 1 2.01948e-28 5 
2 257 25.41 0 3.63 1 2.05104e-28 5 
1 258 27.225 1.815 3.63 1 0 5 
2 259 27.225 0 5.445 1 3.15544e-30 5 
2 260 25.41 1.815 5.445 1 2.01948e-28 5 
2 261 25.41 0 7.26 1 2.05104e-28 5 
1 262 27.225 1.815 7.26 1 0 5 
2 263 27.225 0 9.075 1 3.15544e-30 5 
2 264 25.41 1.815 9.075 1 2.01948e-28 5 
1 265 25.41 3.63 0 1 2.05104e-28 5 
2 266 27.225 5.445 0 1 3.15544e-30 5 
1 267 27.225 3.63 1.815 1 0 5 
2 268 25.41 5.445 1.815 1 2.01948e-28 5 
1 269 25.41 3.63 3.63 1 2.01948e-28 5 
1 270 27.225 5.445 3.63 1 0 5 
2 271 27.225 3.63 5.445 1 0 5 
2 272 25.41 5.445 5.445 1 2.01948e-28 5 
2 273 25.41 3.63 7.26 1 2.01948e-28 5 
1 274 27.225 5.445 7.26 1 0 5 
1 275 27.225 3.63 9.075 1 0 5 
2 276 25.41 5.445 9.075 1 2.01948e-28 5 
1 277 25.41 7.26 0 1 2.05104e-28 5 
1 278 27.225 9.075 0 1 3.15544e-30 5 
1 279 27.225 7.26 1.815 1 0 5 
1 280 25.41 9.075 1.815 1 2.01948e-28 5 
2 281 25.41 7.26 3.63 1 2.01948e-28 5 
1 282 27.225 9.075 3.63 1 0 5 
1 283 27.225 7.26 5.445 1 0 5 
1 284 25.41 9.075 5.445 1 2.01948e-28 5 
1 285 25.41 7.26 7.26 1 2.01948e-28 5 
2 286 27.225 9.075 7.26 1 0 5 
2 287 27.225 7.26 9.075 1 0 5 
1 288 25.41 9.075 9.075 1 2.01948e-28 5 
2 289 29.04 0 0 1 2.08259e-28 5 
1 290 30.855 1.815 0 0 12.3663 5 
1 291 30.855 0 1.815 0 8.44281 5 
1 292 29.04 1.815 1.815 1 2.01948e-28 5 
1 293 29.04 0 3.63 1 2.05104e-28 5 
2 294 30.855 1.815 3.63 0 7.3076 5 
1 295 30.855 0 5.445 0 9.00252 5 
1 296 29.04 1.815 5.445 1 2.01948e-28 5 
2 297 29.04 0 7.26 1 2.05104e-28 5 
1 298 30.855 1.815 7.26 0 8.80078 5 
1 299 30.855 0 9.075 0 9.62626 5 
1 300 29.04 1.815 9.075 1 2.01948e-28 5 
2 301 29.04 3.63 0 1 2.05104e-28 5 
1 302 30.855 5.445 0 0 11.9154 5 
2 303 30.855 3.63 1.815 0 12.9859 5 
2 304 29.04 5.445 1.815 1 2.01948e-28 5 
1 305 29.04 3.63 3.63 1 2.01948e-28 5 
2 306 30.855 5.445 3.63 0 10.7639 5 
1 307 30.855 3.63 5.445 0 10.7456 5 
2 308 29.04 5.445 5.445 1 2.01948e-28 5 
1 309 29.04 3.63 7.26 1 2.01948e-28 5 
2 310 30.855 5.445 7.26 0 4.43019 5 
1 311 30.855 3.63 9.075 0 6.83959 5 
1 312 29.04 5.445 9.075 1 2.01948e-28 5 
2 313 29.04 7.26 0 1 2.05104e-28 5 
1 314 30.855 9.075 0 0 9.22353 5 
2 315 30.855 7.26 1.815 0 10.3237 5 
2 316 29.04 9.075 1.815 1 2.01948e-28 5 
1 317 29.04 7.26 3.63 1 2.01948e-28 5 
1 318 30.855 9.075 3.63 0 7.35578 5 
2 319 30.855 7.26 5.445 0 10.0738 5 
2 320 29.04 9.075 5.445 1 2.01948e-28 5 
2 321 29.04 7.26 7.26 1 2.01948e-28 5 
2 322 30.855 9.075 7.26 0 10.7358 5 
1 323 30.855 7.26 9.075 0 10.3412 5 
2 324 29.04 9.075 9.075 1 2.01948e-28 5 
2 325 32.6703 1.43245 8.22854 0 12.4742 5 
2 326 47.6541 5.80184 2.38447 0 10.5467 5 
2 327 34.2069 7.39284 7.39754 0 10.2796 5 
2 328 63.2064 4.17634 5.65644 0 14.7645 5 
2 329 59.8176 0.37649 0.582197 0 14.0102 5 
2 330 49.9753 7.30882 0.0838332 0 11.5827 5 
2 331 45.1962 0.727912 4.54642 0 3.24035 5 
2 332 55.1069 6.41396 10.1325 0 7.8527 5 
2 333 60.3143 5.73825 1.0015 0 20.8472 5 
2 334 54.0335 4.53023 7.63597 0 12.069 5 
2 335 62.4102 8.30034 2.85811 0 9.30626 5 
2 336 34.2207 8.01593 3.57447 0 10.9756 5 
2 337 53.3383 8.23731 10.7924 0 5.50237 5 
2 338 44.6056 2.69025 10.7 0 6.05757 5 
2 339 56.2793 8.20405 7.09504 0 6.65524 5 
2 340 35.0446 6.8785 9.63446 0 9.84919 5 
2 341 41.5794 4.75252 8.34713 0 13.5966 5 
2 342 48.2775 2.58936 2.99374 0 5.6463 5 
2 343 44.4072 1.81326 5.29817 0 4.6285 5 
2 344 61.9964 9.90128 0.659546 0 32.1342 5 
2 345 62.225 5.49425 5.62242 0 15.7986 5 
2 346 43.0928 10.7445 5.37941 0 4.76044 5 
2 347 41.3649 0.988081 10.3212 0 18.4362 5 
2 348 35.0794 5.4527 4.18331 0 11.2612 5 
2 349 41.7223 9.95147 5.76895 0 6.72809 5 
2 350 47.8434 10.2473 0.545415 0 9.23166 5 
2 351 57.5487 8.38753 9.01493 0 8.06804 5 
2 352 36.7657 0.172799 7.49728 0 8.77217 5 
2 353 61.0356 6.85573 8.01748 0 17.011 5 
2 354 56.3692 10.8841 9.67655 0 11.5773 5 
2 355 40.2885 3.33584 3.82256 0 9.55245 5 
2 356 49.4387 6.43723 9.21274 0 4.58553 5 
2 357 46.1327 9.16405 2.93287 0 17.2035 5 
2 358 46.2409 5.85124 5.09562 0 8.30134 5 
2 359 42.0532 1.94199 1.67401 0 6.47669 5 
2 360 51.346 8.7382 0.359955 0 8.14528 5 
2 361 50.1305 5.42845 10.4039 0 11.6709 5 
2 362 57.1167 6.03942 9.70013 0 7.23705 5 
2 363 53.0838 9.16981 1.73987 0 6.27289 5 
2 364 39.6206 7.78319 1.42035 0 15.7678 5 
2 365 35.6427 2.99026 0.0326657 0 16.1604 5 
2 366 46.205 0.292683 7.72994 0 12.174 5 
2 367 63.3111 2.61263 1.96996 0 7.17476 5 
2 368 43.044 9.65933 7.10092 0 8.15414 5 
2 369 37.5814 7.41986 4.20152 0 12.0946 5 
2 370 45.337 5.44218 1.60663 0 20.6211 5 
2 371 51.8534 9.20832 6.42628 0 7.58062 5 
2 372 63.8832 6.05643 1.61337 0 7.68625 5 
2 373 64.7946 4.45147 1.54442 0 16.5312 5 
2 374 51.1252 2.74566 5.31992 0 15.8992 5 
2 375 47.8299 10.4663 1.37248 0 5.59759 5 
2 376 39.1961 3.47663 6.85274 0 7.11951 5 
2 377 36.8097 7.09215 6.76959 0 7.62367 5 
2 378 58.9064 2.699 5.18834 0 9.20948 5 
2 379 45.3889 2.2134 0.309006 0 9.79493 5 
2 380 62.1277 4.64456 1.54661 0 4.38012 5 
2 381 63.6244 4.46831 1.42864 0 4.79881 5 
2 382 61.6041 1.00377 1.76634 0 8.94468 5 
2 383 34.9916 3.97854 2.75579 0 5.54507 5 
2 384 37.084 8.52854 4.9583 0 6.30896 5 
2 385 44.089 4.92555 8.80941 0 10.568 5 
2 386 63.1078 7.09643 2.34405 0 10.2772 5 
2 387 54.8723 9.89816 2.72387 0 19.5925 5 
2 388 60.7943 5.13205 5.50986 0 6.56347 5 
2 389 52.2849 8.90324 8.23114 0 7.81255 5 
2 390 47.7715 10.3604 6.89052 0 13.6765 5 
2 391 47.0229 8.98095 7.503 0 3.2905 5 
2 392 55.6111 10.75 10.3936 0 18.4887 5 
2 393 60.481 3.15065 5.85257 0 16.1797 5 
2 394 49.4766 1.1264 4.50877 0 18.4154 5 
2 395 51.5113 9.5458 4.79202 0 10.7522 5 
2 396 56.5109 9.46628 7.79335 0 8.79413 5 
2 397 58.8295 7.69417 8.07729 0 6.4651 5 
2 398 33.2937 9.64888 5.71711 0 17.2343 5 
2 399 47.8068 0.709961 7.76917 0 4.61082 5 
2 400 48.6438 7.27103 7.42751 0 5.70179 5 
2 401 39.1895 9.98214 9.42946 0 15.7034 5 
2 402 61.7469 5.9236 1.51583 0 7.05395 5 
2 403 47.3829 10.7742 2.34714 0 15.1845 5 
2 404 47.2416 3.43833 5.60464 0 10.0929 5 
2 405 61.4687 4.78861 5.09142 0 5.82422 5 
2 406 59.0233 3.97657 2.30344 0 12.3273 5 
2 407 65.3111 1.67275 6.86602 0 46.2006 5 
2 408 52.8062 0.00648001 0.00957231 0 14.6831 5 
2 409 57.9354 7.92068 3.47584 0 8.90981 5 
2 410 46.317 7.43236 7.41132 0 7.25615 5 
2 411 39.3759 9.10861 7.72015 0 7.3156 5 
2 412 59.7439 1.02964 0.890123 0 10.2382 5 
2 413 57.63 6.85604 2.32885 0 12.7251 5 
2 414 39.6466 0.882752 4.23429 0 7.64075 5 
2 415 63.7771 10.3188 4.24551 0 12.3693 5 
2 416 41.4652 7.53772 3.09314 0 20.9458 5 
2 417 58.0502 8.53629 4.60059 0 9.78109 5 
2 418 41.888 2.11231 0.123234 0 6.9951 5 
2 419 38.9369 10.7074 2.65775 0 9.48541 5 
2 420 59.4505 1.48599 4.33578 0 13.1481 5 
2 421 52.305 1.92623 9.02078 0 11.8792 5 
2 422 37.8231 10.7586 2.80057 0 7.97794 5 
2 423 40.3017 1.10683 2.38938 0 6.02514 5 
2 424 53.4062 7.57952 8.65504 0 7.11052 5 
2 425 55.4163 8.19952 7.29108 0 5.98124 5 
2 426 53.3642 0.614639 6.51458 0 18.0943 5 
2 427 40.0863 3.47149 7.6212 0 6.81529 5 
2 428 36.5067 8.3044 5.72948 0 8.29162 5 
2 429 50.7663 6.4032 3.59007 0 11.5519 5 
2 430 55.6367 1.55776 1.76078 0 10.6164 5 
2 431 48.5256 9.36786 8.85646 0 8.76833 5 
2 432 50.8618 8.04767 3.44132 0 7.92814 5 
2 433 37.0913 5.75589 3.38395 0 15.1128 5 
2 434 51.8839 5.64193 4.69193 0 14.4946 5 
2 435 41.1264 4.03176 4.27996 0 15.4552 5 
2 436 47.2691 5.18251 4.22348 0 14.0192 5 
2 437 41.7945 0.852286 4.02649 0 9.17628 5 
2 438 40.9656 7.31573 7.36422 0 14.589 5 
2 439 49.4603 7.93455 7.84916 0 6.47501 5 
2 440 63.5351 5.01699 10.2384 0 15.4257 5 
2 441 43.1754 5.01413 5.63171 0 9.41087 5 
2 442 54.2765 4.37596 6.59542 0 19.8075 5 
2 443 64.899 1.63779 7.29737 0 32.594 5 
2 444 43.9025 5.89922 5.69338 0 15.8025 5 
2 445 59.7612 0.162812 2.98614 0 7.59955 5 
2 446 53.6761 5.94743 9.99536 0 7.22203 5 
2 447 41.3803 10.5642 2.68692 0 10.0254 5 
2 448 60.2427 7.55792 4.96313 0 8.65123 5 
2 449 59.3647 0.240491 1.75056 0 11.4327 5 
2 450 55.7661 7.70823 4.75499 0 12.4564 5 
2 451 51.6977 8.18612 10.7978 0 7.88231 5 
2 452 55.3978 3.04388 8.20957 0 16.4202 5 
2 453 38.2624 0.0463252 5.39808 0 7.68144 5 
2 454 35.2809 1.77595 9.83695 0 14.2252 5 
2 455 58.2503 8.13134 4.75268 0 9.13224 5 
2 456 32.8772 6.36833 5.64623 0 5.90748 5 
2 457 34.854 5.92441 4.24418 0 10.7365 5 
2 458 39.721 4.20103 6.82652 0 12.2503 5 
2 459 54.2013 7.72449 5.86602 0 6.59589 5 
2 460 41.827 8.8855 4.0501 0 11.0194 5 
2 461 55.0849 3.37774 0.101795 0 11.7503 5 
2 462 36.0611 5.67326 8.44934 0 11.5051 5 
2 463 39.8798 0.601986 0.769214 0 8.42829 5 
2 464 37.9061 7.88179 3.23457 0 4.77358 5 
2 465 34.3232 5.20329 4.97849 0 7.24308 5 
2 466 49.658 4.86227 1.63689 0 6.55839 5 
2 467 42.0117 9.0788 7.57549 0 11.5071 5 
2 468 51.5459 7.41788 3.6065 0 9.34267 5 
2 469 34.5477 10.7472 5.90666 0 13.4113 5 
2 470 32.7241 9.32394 0.319681 0 9.00958 5 
2 471 45.0046 5.33231 6.27452 0 10.2107 5 
2 472 56.8118 7.39793 5.83995 0 15.928 5 
2 473 33.8327 1.3341 10.5998 0 12.1888 5 
2 474 38.821 3.82586 6.68783 0 9.36773 5 
2 475 52.5207 1.37141 6.02067 0 9.20224 5 
2 476 63.8381 3.88691 9.12693 0 9.36063 5 
2 477 64.4988 2.82066 2.73914 0 28.5166 5 
2 478 46.5331 8.85409 9.77829 0 10.206 5 
2 479 40.6606 8.28312 7.56699 0 18.5509 5 
2 480 47.432 2.87082 7.24733 0 11.584 5 
2 481 36.4784 2.28213 1.23793 0 13.7314 5 
2 482 50.5397 0.0662043 1.91636 0 17.0611 5 
2 483 52.2511 4.70348 0.898496 0 11.0794 5 
2 484 55.1278 4.08713 9.10629 0 6.93911 5 
2 485 36.7092 10.5997 0.322728 0 4.82471 5 
2 486 35.2951 5.38232 8.37917 0 12.1598 5 
2 487 63.1848 2.72419 3.91667 0 19.0951 5 
2 488 57.797 5.44451 8.15935 0 14.9843 5 
2 489 54.6211 7.42334 8.24123 0 7.78967 5 
2 490 33.8581 2.51093 2.41396 0 15.3141 5 
2 491 51.0502 7.10705 6.71489 0 6.39193 5 
2 492 44.8058 2.44809 2.5449 0 5.88834 5 
2 493 54.0039 1.80695 8.1033 0 13.0903 5 
2 494 37.8893 0.518784 7.20911 0 12.4698 5 
2 495 36.752 10.3363 5.27273 0 10.3995 5 
2 496 52.9596 9.95373 0.195416 0 10.1085 5 
2 497 52.0611 7.86118 5.40778 0 9.59096 5 
2 498 34.4242 4.80938 5.65381 0 15.6212 5 
2 499 57.8894 0.71173 4.82199 0 10.8448 5 
2 500 64.5945 5.0937 3.58342 0 16.4755 5 
2 501 47.2385 8.09425 2.23617 0 5.12721 5 
2 502 38.269 4.05674 10.2336 0 23.9631 5 
2 503 64.1917 2.77649 0.76595 0 17.825 5 
2 504 36.7161 5.73182 1.74331 0 9.32129 5 
2 505 49.5835 1.14546 9.16476 0 13.6864 5 
2 506 44.7109 4.61617 3.56351 0 7.79126 5 
2 507 55.9816 6.28109 9.49482 0 7.32949 5 
2 508 57.4419 9.11055 7.62073 0 12.1181 5 
2 509 45.3806 10.1848 6.59501 0 9.2145 5 
2 510 44.4993 5.87521 4.95574 0 9.75155 5 
2 511 45.7933 2.6184 0.904803 0 4.46075 5 
2 512 46.443 5.14422 3.15556 0 5.34596 5 
2 513 36.0993 2.35645 8.73398 0 8.33482 5 
2 514 49.9014 7.28345 9.40507 0 5.53094 5 
2 515 40.6333 7.74894 2.87129 0 15.7911 5 
2 516 45.1768 0.88215 5.00682 0 4.6715 5 
2 517 40.2778 8.66139 5.35073 0 10.0826 5 
2 518 32.7755 2.89804 7.23846 0 12.0918 5 
2 519 46.561 2.03452 10.4922 0 12.7164 5 
2 520 37.0491 8.66687 10.3024 0 9.00826 5 
2 521 38.2616 6.59935 0.694821 0 16.894 5 
2 522 44.0226 3.18498 5.55018 0 5.73015 5 
2 523 59.6501 9.08595 7.91097 0 20.3062 5 
2 524 43.4326 8.7347 6.8799 0 10.6754 5 
2 525 34.1513 0.451069 1.6696 0 11.4746 5 
2 526 57.73 0.672255 5.65521 0 15.1978 5 
2 527 63.0253 2.40141 2.22769 0 12.3768 5 
2 528 35.5774 7.61963 7.69336 0 7.31148 5 
2 529 48.8296 2.85077 7.74901 0 18.2784 5 
2 530 45.0312 2.18502 2.5331 0 5.35695 5 
2 531 46.9173 5.11284 9.37833 0 10.1489 5 
2 532 64.5964 4.84081 0.372907 0 17.9316 5 
2 533 49.7816 0.344546 8.20206 0 5.78855 5 
2 534 51.9972 8.96128 3.58911 0 12.955 5 
2 535 40.252 5.84279 4.68943 0 2.35609 5 
2 536 45.855 10.752 10.5296 0 10.8483 5 
2 537 60.4568 9.44723 3.39338 0 10.8214 5 
2 538 37.5179 10.8638 6.96441 0 7.12206 5 
2 539 47.962 10.1486 7.52251 0 4.52775 5 
2 540 59.3093 5.89731 6.23786 0 11.052 5 
2 541 37.8716 10.2938 8.94432 0 6.02263 5 
2 542 37.7474 0.447304 3.74195 0 8.93047 5 
2 543 36.2643 1.0513 5.64944 0 13.6596 5 
2 544 33.402 6.11456 9.33138 0 10.7274 5 
2 545 49.5574 7.34557 8.02783 0 7.49202 5 
2 546 55.4887 0.248287 2.0907 0 5.09767 5 
2 547 54.5913 3.76654 0.721901 0 11.5453 5 
2 548 37.267 10.031 2.41384 0 7.16508 5 
2 549 45.0883 6.38171 1.82204 0 28.4809 5 
2 550 33.5305 7.52637 8.30192 0 11.0328 5 
2 551 55.9864 0.842062 6.42302 0 11.2361 5 
2 552 62.9062 10.1244 4.68756 0 24.2106 5 
2 553 49.2 9.05238 10.0105 0 9.05598 5 
2 554 52.3255 7.88258 5.65558 0 10.2682 5 
2 555 48.705 1.75786 10.6299 0 13.0317 5 
2 556 51.4344 2.9757 5.78724 0 9.72786 5 
2 557 55.4919 7.26417 1.06104 0 13.7763 5 
2 558 50.5972 6.65093 7.27414 0 9.61544 5 
2 559 48.8457 6.22453 6.41299 0 8.18502 5 
2 560 47.0877 1.64675 5.46977 0 15.9409 5 
2 561 56.5637 0.34474 0.562106 0 10.1654 5 
2 562 49.7258 3.49179 0.381798 0 9.66839 5 
2 563 40.6788 1.1672 4.17053 0 8.3407 5 
2 564 50.6983 6.50317 6.65499 0 6.68086 5 
2 565 63.2247 8.40741 5.58819 0 24.0985 5 
2 566 48.5699 7.07989 7.59028 0 7.70601 5 
2 567 45.9843 5.30179 5.22484 0 6.46868 5 
2 568 55.8804 5.81742 3.01269 0 15.5825 5 
2 569 52.4529 3.05033 7.65969 0 15.4099 5 
2 570 50.0011 10.2176 2.56354 0 5.10353 5 
2 571 46.1789 6.50652 8.5269 0 8.80624 5 
2 572 62.7346 7.42144 8.94262 0 17.4626 5 
2 573 49.9006 2.50764 1.56472 0 15.6237 5 
2 574 62.0574 2.73799 7.09499 0 22.7046 5 
2 575 32.8273 10.1923 2.99859 0 10.9863 5 
2 576 60.7259 3.03753 10.372 0 24.5098 5 
2 577 49.2278 1.33892 4.53542 0 13.2905 5 
2 578 55.6197 4.75339 1.17328 0 11.1827 5 
2 579 57.7009 1.08754 4.80538 0 10.5085 5 
2 580 43.9273 3.23503 8.25049 0 10.4143 5 
2 581 43.7291 3.60196 0.605551 0 20.3654 5 
2 582 51.3959 5.28476 2.20503 0 13.3257 5 
2 583 36.4099 10.6106 9.4156 0 11.4518 5 
2 584 48.7384 4.00093 8.7655 0 7.62303 5 
2 585 37.9692 1.73782 0.628603 0 5.21192 5 
2 586 37.546 5.09762 4.14482 0 7.34085 5 
2 587 61.5406 4.61881 4.48938 0 12.7711 5 
2 588 53.9478 3.35769 0.654951 0 18.8687 5 
2 589 59.277 9.77548 10.0133 0 6.12254 5 
2 590 62.1128 8.38581 1.85997 0 15.2325 5 
2 591 51.3717 0.341987 8.74759 0 12.79 5 
2 592 49.7308 9.38306 3.01869 0 8.33955 5 
2 593 61.0764 6.39093 4.23808 0 7.82851 5 
2 594 59.1946 5.72455 10.2352 0 8.38535 5 
2 595 46.3926 6.3147 8.15819 0 4.09866 5 
2 596 61.4452 3.68174 2.06418 0 7.91679 5 
2 597 56.9479 7.82903 9.57407 0 9.33648 5 
2 598 35.0506 7.73314 9.57296 0 9.50414 5 
2 599 44.4109 0.9785 1.75361 0 26.3267 5 
2 600 46.2867 1.05011 7.34741 0 7.42175 5 
2 601 51.0505 8.85408 9.56351 0 7.95862 5 
2 602 57.805 6.91739 9.76315 0 9.61835 5 
2 603 61.3678 5.29767 1.23134 0 9.53098 5 
2 604 45.0024 4.16673 7.48772 0 9.23505 5 
2 605 36.6472 0.836589 1.56056 0 6.05774 5 
2 606 48.2745 7.71652 2.59203 0 12.9263 5 
2 607 45.4429 10.6273 6.84727 0 10.9988 5 
2 608 54.9248 9.89564 3.94654 0 10.0489 5 
2 609 60.7405 8.64969 4.67043 0 8.41673 5 
2 610 35.0716 5.43009 5.26938 0 9.85078 5 
2 611 47.3955 5.44127 8.06686 0 6.94269 5 
2 612 63.146 3.26833 1.59207 0 6.58402 5 
2 613 36.2643 0.874707 10.5903 0 7.10361 5 
2 614 46.0052 2.59629 10.4888 0 10.1724 5 
2 615 59.8996 2.15709 1.41005 0 5.9746 5 
2 616 39.0834 3.69301 6.26915 0 9.38424 5 
2 617 47.0536 6.378 4.71403 0 12.0112 5 
2 618 44.6992 4.16343 6.53544 0 7.18429 5 
2 619 46.7009 1.6203 7.29844 0 3.32647 5 
2 620 65.1897 7.60194 4.38584 0 62.4935 5 
2 621 60.4159 8.92465 8.63993 0 22.1137 5 
2 622 44.8967 0.10463 5.22479 0 9.98198 5 
2 623 53.548 7.04033 7.02294 0 9.7019 5 
2 624 58.7745 4.10949 3.89505 0 18.1039 5 
2 625 45.395 3.6406 7.55318 0 11.1049 5 
2 626 37.4038 3.17471 7.26207 0 8.25704 5 
2 627 60.5821 3.42707 1.56971 0 5.26645 5 
2 628 52.3455 0.0608555 10.0278 0 5.99111 5 
2 629 45.1485 5.62503 3.75112 0 5.0868 5 
2 630 41.2992 3.16899 9.07843 0 5.9904 5 
2 631 36.7338 6.91101 0.530315 0 11.4091 5 
2 632 47.6344 4.10353 1.69746 0 9.98816 5 
2 633 57.3638 7.25245 0.125568 0 11.1149 5 
2 634 58.6388 6.10836 3.14345 0 6.47075 5 
2 635 46.2464 3.49146 5.60389 0 8.13273 5 
2 636 56.1648 9.16986 2.52534 0 10.2998 5 
2 637 47.8618 4.06588 0.544969 0 9.70974 5 
2 638 35.0827 2.20467 6.16573 0 13.1538 5 
2 639 59.8359 4.6016 9.14268 0 13.6966 5 
2 640 42.2437 1.97322 3.89345 0 10.4206 5 
2 641 63.1874 6.41878 4.01885 0 9.70538 5 
2 642 47.7981 6.83707 10.2851 0 16.2558 5 
2 643 45.927 0.549745 4.84442 0 15.1795 5 
2 644 52.1389 8.14911 9.41083 0 9.15135 5 
2 645 36.9505 1.13887 7.24521 0 8.06457 5 
2 646 59.8965 6.33019 7.17208 0 8.62699 5 
2 647 64.753 0.205995 10.0348 0 50.2449 5 
2 648 39.0302 10.5385 5.69626 0 11.9573 5 
ITEM: TIMESTEP
10
ITEM: NUMBER OF ATOMS
648
ITEM: BOX BOUNDS xy xz yz pp pp pp
-7.2599999999999998e+00 8.1674999999999997e+01 0.0000000000000000e+00
0.0000000000000000e+00 1.0890000000000001e+01 0.0000000000000000e+00
0.0000000000000000e+00 1.0890000000000001e+01 0.0000000000000000e+00
ITEM: ATOMS type id x y z c_ptm[1] c_centro c_cna 
1 1 0 0 0 0 19.7653 5 
1 2 1.815 1.815 0 1 1.57772e-29 5 
2 3 1.815 0 1.815 1 1.57772e-29 5 
2 4 0 1.815 1.815 0 19.7653 5 
2 5 0 0 3.63 0 19.7653 5 
2 6 1.815 1.815 3.63 1 1.26218e-29 5 
1 7 1.815 0 5.445 1 1.57772e-29 5 
2 8 0 1.815 5.445 0 13.1769 5 
2 9 0 0 7.26 0 19.7653 5 
1 10 1.815 1.815 7.26 1 1.26218e-29 5 
1 11 1.815 0 9.075 1 1.57772e-29 5 
1 12 0 1.815 9.075 0 19.7653 5 
2 13 0 3.63 0 0 19.7653 5 
2 14 1.815 5.445 0 1 1.57772e-29 5 
1 15 1.815 3.63 1.815 1 1.26218e-29 5 
2 16 0 5.445 1.815 0 19.7653 5 
1 17 0 3.63 3.63 0 13.1769 5 
2 18 1.815 5.445 3.63 1 1.26218e-29 5 
2 19 1.815 3.63 5.445 1 1.26218e-29 5 
1 20 0 5.445 5.445 0 13.1769 5 
2 21 0 3.63 7.26 0 19.7653 5 
1 22 1.815 5.445 7.26 1 1.26218e-29 5 
1 23 1.815 3.63 9.075 1 1.26218e-29 5 
2 24 0 5.445 9.075 0 19.7653 5 
1 25 0 7.26 0 0 19.7653 5 
2 26 1.815 9.075 0 1 1.57772e-29 5 
2 27 1.815 7.26 1.815 1 1.26218e-29 5 
1 28 0 9.075 1.815 0 19.7653 5 
1 29 0 7.26 3.63 0 19.7653 5 
2 30 1.815 9.075 3.63 1 1.26218e-29 5 
2 31 1.815 7.26 5.445 1 1.26218e-29 5 
2 32 0 9.075 5.445 0 19.7653 5 
1 33 0 7.26 7.26 0 19.7653 5 
2 34 1.815 9.075 7.26 1 1.26218e-29 5 
1 35 1.815 7.26 9.075 1 1.26218e-29 5 
1 36 0 9.075 9.075 0 19.7653 5 
2 37 3.63 0 0 1 6.31089e-30 5 
1 38 5.445 1.815 0 1 5.36425e-29 5 
1 39 5.445 0 1.815 1 5.36425e-29 5 
1 40 3.63 1.815 1.815 1 0 5 
2 41 3.63 0 3.63 1 3.15544e-30 5 
1 42 5.445 1.815 3.63 1 5.04871e-29 5 
2 43 5.445 0 5.445 1 5.36425e-29 5 
1 44 3.63 1.815 5.445 1 0 5 
2 45 3.63 0 7.26 1 3.15544e-30 5 
2 46 5.445 1.815 7.26 1 5.04871e-29 5 
2 47 5.445 0 9.075 1 5.36425e-29 5 
1 48 3.63 1.815 9.075 1 0 5 
2 49 3.63 3.63 0 1 3.15544e-30 5 
1 50 5.445 5.445 0 1 5.36425e-29 5 
2 51 5.445 3.63 1.815 1 5.04871e-29 5 
2 52 3.63 5.445 1.815 1 0 5 
1 53 3.63 3.63 3.63 1 0 5 
1 54 5.445 5.445 3.63 1 5.04871e-29 5 
2 55 5.445 3.63 5.445 1 5.04871e-29 5 
1 56 3.63 5.445 5.445 1 0 5 
2 57 3.63 3.63 7.26 1 0 5 
1 58 5.445 5.445 7.26 1 5.04871e-29 5 
2 59 5.445 3.63 9.075 1 5.04871e-29 5 
1 60 3.63 5.445 9.075 1 0 5 
1 61 3.63 7.26 0 1 3.15544e-30 5 
2 62 5.445 9.075 0 1 5.36425e-29 5 
2 63 5.445 7.26 1.815 1 5.04871e-29 5 
1 64 3.63 9.075 1.815 1 0 5 
1 65 3.63 7.26 3.63 1 0 5 
2 66 5.445 9.075 3.63 1 5.04871e-29 5 
2 67 5.445 7.26 5.445 1 5.04871e-29 5 
1 68 3.63 9.075 5.445 1 0 5 
2 69 3.63 7.26 7.26 1 0 5 
2 70 5.445 9.075 7.26 1 5.04871e-29 5 
2 71 5.445 7.26 9.075 1 5.04871e-29 5 
2 72 3.63 9.075 9.075 1 0 5 
2 73 7.26 0 0 1 5.6798e-29 5 
1 74 9.075 1.815 0 1 5.36425e-29 5 
1 75 9.075 0 1.815 1 5.36425e-29 5 
2 76 7.26 1.815 1.815 1 5.04871e-29 5 
2 77 7.26 0 3.63 1 5.36425e-29 5 
2 78 9.075 1.815 3.63 1 5.04871e-29 5 
1 79 9.075 0 5.445 1 5.36425e-29 5 
1 80 7.26 1.815 5.445 1 5.04871e-29 5 
2 81 7.26 0 7.26 1 5.36425e-29 5 
1 82 9.075 1.815 7.26 1 5.04871e-29 5 
1 83 9.075 0 9.075 1 5.36425e-29 5 
2 84 7.26 1.815 9.075 1 5.04871e-29 5 
1 85 7.26 3.63 0 1 5.36425e-29 5 
1 86 9.075 5.445 0 1 5.36425e-29 5 
2 87 9.075 3.63 1.815 1 5.04871e-29 5 
2 88 7.26 5.445 1.815 1 5.04871e-29 5 
2 89 7.26 3.63 3.63 1 5.04871e-29 5 
2 90 9.075 5.445 3.63 1 5.04871e-29 5 
1 91 9.075 3.63 5.445 1 5.04871e-29 5 
1 92 7.26 5.445 5.445 1 5.04871e-29 5 
1 93 7.26 3.63 7.26 1 5.04871e-29 5 
1 94 9.075 5.445 7.26 1 5.04871e-29 5 
2 95 9.075 3.63 9.075 1 5.04871e-29 5 