ITEM: TIMESTEP
0
ITEM: NUMBER OF ATOMS
432
ITEM: BOX BOUNDS xy xz yz pp pp pp
-7.2599999999999998e+00 5.4449999999999996e+01 0.0000000000000000e+00
0.0000000000000000e+00 1.0890000000000001e+01 0.0000000000000000e+00
0.0000000000000000e+00 1.0890000000000001e+01 0.0000000000000000e+00
ITEM: ATOMS type id x y z c_ptm[1] c_centro 
2 1 0 0 0 0 19.7653 
1 2 1.815 1.815 0 1 1.57772e-29 
2 3 1.815 0 1.815 1 1.57772e-29 
2 4 0 1.815 1.815 0 19.7653 
1 5 0 0 3.63 0 19.7653 
2 6 1.815 1.815 3.63 1 1.26218e-29 
2 7 1.815 0 5.445 1 1.57772e-29 
2 8 0 1.815 5.445 0 19.7653 
2 9 0 0 7.26 0 19.7653 
2 10 1.815 1.815 7.26 1 1.26218e-29 
1 11 1.815 0 9.075 1 1.57772e-29 
1 12 0 1.815 9.075 0 19.7653 
2 13 0 3.63 0 0 19.7653 
1 14 1.815 5.445 0 1 1.57772e-29 
1 15 1.815 3.63 1.815 1 1.26218e-29 
1 16 0 5.445 1.815 0 19.7653 
1 17 0 3.63 3.63 0 19.7653 
2 18 1.815 5.445 3.63 1 1.26218e-29 
1 19 1.815 3.63 5.445 1 1.26218e-29 
2 20 0 5.445 5.445 0 19.7653 
2 21 0 3.63 7.26 0 19.7653 
2 22 1.815 5.445 7.26 1 1.26218e-29 
1 23 1.815 3.63 9.075 1 1.26218e-29 
1 24 0 5.445 9.075 0 19.7653 
1 25 0 7.26 0 0 19.7653 
2 26 1.815 9.075 0 1 1.57772e-29 
1 27 1.815 7.26 1.815 1 1.26218e-29 
1 28 0 9.075 1.815 0 19.7653 
2 29 0 7.26 3.63 0 19.7653 
1 30 1.815 9.075 3.63 1 1.26218e-29 
2 31 1.815 7.26 5.445 1 1.26218e-29 
1 32 0 9.075 5.445 0 19.7653 
2 33 0 7.26 7.26 0 19.7653 
1 34 1.815 9.075 7.26 1 1.26218e-29 
1 35 1.815 7.26 9.075 1 1.26218e-29 
2 36 0 9.075 9.075 0 19.7653 
1 37 3.63 0 0 1 1.19907e-28 
2 38 5.445 1.815 0 1 5.36425e-29 
1 39 5.445 0 1.815 1 5.36425e-29 
1 40 3.63 1.815 1.815 1 1.13596e-28 
2 41 3.63 0 3.63 1 1.16751e-28 
2 42 5.445 1.815 3.63 1 5.04871e-29 
1 43 5.445 0 5.445 1 5.36425e-29 
1 44 3.63 1.815 5.445 1 1.13596e-28 
2 45 3.63 0 7.26 1 1.16751e-28 
2 46 5.445 1.815 7.26 1 5.04871e-29 
1 47 5.445 0 9.075 1 5.36425e-29 
1 48 3.63 1.815 9.075 1 1.13596e-28 
2 49 3.63 3.63 0 1 1.16751e-28 
1 50 5.445 5.445 0 1 5.36425e-29 
1 51 5.445 3.63 1.815 1 5.04871e-29 
1 52 3.63 5.445 1.815 1 1.13596e-28 
2 53 3.63 3.63 3.63 1 1.13596e-28 
1 54 5.445 5.445 3.63 1 5.04871e-29 
2 55 5.445 3.63 5.445 1 5.04871e-29 
1 56 3.63 5.445 5.445 1 1.13596e-28 
2 57 3.63 3.63 7.26 1 1.13596e-28 
2 58 5.445 5.445 7.26 1 5.04871e-29 
2 59 5.445 3.63 9.075 1 5.04871e-29 
1 60 3.63 5.445 9.075 1 1.13596e-28 
1 61 3.63 7.26 0 1 1.16751e-28 
2 62 5.445 9.075 0 1 5.36425e-29 
2 63 5.445 7.26 1.815 1 5.04871e-29 
1 64 3.63 9.075 1.815 1 1.13596e-28 
1 65 3.63 7.26 3.63 1 1.13596e-28 
1 66 5.445 9.075 3.63 1 5.04871e-29 
2 67 5.445 7.26 5.445 1 5.04871e-29 
2 68 3.63 9.075 5.445 1 1.13596e-28 
2 69 3.63 7.26 7.26 1 1.13596e-28 
2 70 5.445 9.075 7.26 1 5.04871e-29 
1 71 5.445 7.26 9.075 1 5.04871e-29 
1 72 3.63 9.075 9.075 1 1.13596e-28 
1 73 7.26 0 0 1 1.89327e-29 
1 74 9.075 1.815 0 1 5.36425e-29 
1 75 9.075 0 1.815 1 5.36425e-29 
2 76 7.26 1.815 1.815 1 1.26218e-29 
2 77 7.26 0 3.63 1 1.57772e-29 
1 78 9.075 1.815 3.63 1 5.04871e-29 
1 79 9.075 0 5.445 1 5.36425e-29 
2 80 7.26 1.815 5.445 1 1.26218e-29 
2 81 7.26 0 7.26 1 1.57772e-29 
1 82 9.075 1.815 7.26 1 5.04871e-29 
2 83 9.075 0 9.075 1 5.36425e-29 
2 84 7.26 1.815 9.075 1 1.26218e-29 
2 85 7.26 3.63 0 1 1.57772e-29 
1 86 9.075 5.445 0 1 5.36425e-29 
1 87 9.075 3.63 1.815 1 5.04871e-29 
2 88 7.26 5.445 1.815 1 1.26218e-29 
1 89 7.26 3.63 3.63 1 1.26218e-29 
2 90 9.075 5.445 3.63 1 5.04871e-29 
2 91 9.075 3.63 5.445 1 5.04871e-29 
1 92 7.26 5.445 5.445 1 1.26218e-29 
2 93 7.26 3.63 7.26 1 1.26218e-29 
2 94 9.075 5.445 7.26 1 5.04871e-29 
1 95 9.075 3.63 9.075 1 5.04871e-29 
1 96 7.26 5.445 9.075 1 1.26218e-29 
2 97 7.26 7.26 0 1 1.57772e-29 
1 98 9.075 9.075 0 1 5.36425e-29 
1 99 9.075 7.26 1.815 1 5.04871e-29 
2 100 7.26 9.075 1.815 1 1.26218e-29 
2 101 7.26 7.26 3.63 1 1.26218e-29 
2 102 9.075 9.075 3.63 1 5.04871e-29 
2 103 9.075 7.26 5.445 1 5.04871e-29 
1 104 7.26 9.075 5.445 1 1.26218e-29 
2 105 7.26 7.26 7.26 1 1.26218e-29 
1 106 9.075 9.075 7.26 1 5.04871e-29 
2 107 9.075 7.26 9.075 1 5.04871e-29 
1 108 7.26 9.075 9.075 1 1.26218e-29 
2 109 10.89 0 0 1 6.31089e-30 
2 110 12.705 1.815 0 1 3.15544e-30 
2 111 12.705 0 1.815 1 3.15544e-30 
1 112 10.89 1.815 1.815 1 0 
1 113 10.89 0 3.63 1 3.15544e-30 
2 114 12.705 1.815 3.63 1 0 
1 115 12.705 0 5.445 1 3.15544e-30 
1 116 10.89 1.815 5.445 1 0 
1 117 10.89 0 7.26 1 3.15544e-30 
1 118 12.705 1.815 7.26 1 0 
2 119 12.705 0 9.075 1 3.15544e-30 
1 120 10.89 1.815 9.075 1 0 
2 121 10.89 3.63 0 1 3.15544e-30 
2 122 12.705 5.445 0 1 3.15544e-30 
2 123 12.705 3.63 1.815 1 0 
1 124 10.89 5.445 1.815 1 0 
1 125 10.89 3.63 3.63 1 0 
1 126 12.705 5.445 3.63 1 0 
2 127 12.705 3.63 5.445 1 0 
1 128 10.89 5.445 5.445 1 0 
2 129 10.89 3.63 7.26 1 0 
2 130 12.705 5.445 7.26 1 0 
2 131 12.705 3.63 9.075 1 0 
1 132 10.89 5.445 9.075 1 0 
2 133 10.89 7.26 0 1 3.15544e-30 
2 134 12.705 9.075 0 1 3.15544e-30 
2 135 12.705 7.26 1.815 1 0 
1 136 10.89 9.075 1.815 1 0 
2 137 10.89 7.26 3.63 1 0 
1 138 12.705 9.075 3.63 1 0 
2 139 12.705 7.26 5.445 1 0 
2 140 10.89 9.075 5.445 1 0 
2 141 10.89 7.26 7.26 1 0 
2 142 12.705 9.075 7.26 1 0 
1 143 12.705 7.26 9.075 1 0 
1 144 10.89 9.075 9.075 1 0 
2 145 14.52 0 0 1 4.60695e-28 
1 146 16.335 1.815 0 1 2.05104e-28 
2 147 16.335 0 1.815 1 2.05104e-28 
2 148 14.52 1.815 1.815 1 4.54384e-28 
2 149 14.52 0 3.63 1 4.57539e-28 
2 150 16.335 1.815 3.63 1 2.01948e-28 
1 151 16.335 0 5.445 1 2.05104e-28 
2 152 14.52 1.815 5.445 1 4.54384e-28 
1 153 14.52 0 7.26 1 4.57539e-28 
2 154 16.335 1.815 7.26 1 2.01948e-28 
2 155 16.335 0 9.075 1 2.05104e-28 
2 156 14.52 1.815 9.075 1 4.54384e-28 
1 157 14.52 3.63 0 1 4.57539e-28 
1 158 16.335 5.445 0 1 2.05104e-28 
1 159 16.335 3.63 1.815 1 2.01948e-28 
1 160 14.52 5.445 1.815 1 4.54384e-28 
1 161 14.52 3.63 3.63 1 4.54384e-28 
1 162 16.335 5.445 3.63 1 2.01948e-28 
1 163 16.335 3.63 5.445 1 2.01948e-28 
1 164 14.52 5.445 5.445 1 4.54384e-28 
1 165 14.52 3.63 7.26 1 4.54384e-28 
1 166 16.335 5.445 7.26 1 2.01948e-28 
2 167 16.335 3.63 9.075 1 2.01948e-28 
2 168 14.52 5.445 9.075 1 4.54384e-28 
1 169 14.52 7.26 0 1 4.57539e-28 
2 170 16.335 9.075 0 1 2.05104e-28 
1 171 16.335 7.26 1.815 1 2.01948e-28 
2 172 14.52 9.075 1.815 1 4.54384e-28 
2 173 14.52 7.26 3.63 1 4.54384e-28 
2 174 16.335 9.075 3.63 1 2.01948e-28 
1 175 16.335 7.26 5.445 1 2.01948e-28 
2 176 14.52 9.075 5.445 1 4.54384e-28 
2 177 14.52 7.26 7.26 1 4.54384e-28 
1 178 16.335 9.075 7.26 1 2.01948e-28 
2 179 16.335 7.26 9.075 1 2.01948e-28 
2 180 14.52 9.075 9.075 1 4.54384e-28 
1 181 18.15 0 0 1 2.08259e-28 
1 182 19.965 1.815 0 0 7.65475 
1 183 19.965 0 1.815 0 10.1767 
1 184 18.15 1.815 1.815 1 2.01948e-28 
2 185 18.15 0 3.63 1 2.05104e-28 
2 186 19.965 1.815 3.63 0 11.4174 
2 187 19.965 0 5.445 0 11.079 
2 188 18.15 1.815 5.445 1 2.01948e-28 
2 189 18.15 0 7.26 1 2.05104e-28 
1 190 19.965 1.815 7.26 0 8.78841 
2 191 19.965 0 9.075 0 8.87366 
1 192 18.15 1.815 9.075 1 2.01948e-28 
1 193 18.15 3.63 0 1 2.05104e-28 
1 194 19.965 5.445 0 0 13.1769 
2 195 19.965 3.63 1.815 0 8.11024 
2 196 18.15 5.445 1.815 1 2.01948e-28 
2 197 18.15 3.63 3.63 1 2.01948e-28 
2 198 19.965 5.445 3.63 0 10.3665 
2 199 19.965 3.63 5.445 0 4.75929 
1 200 18.15 5.445 5.445 1 2.01948e-28 
2 201 18.15 3.63 7.26 1 2.01948e-28 
2 202 19.965 5.445 7.26 0 4.35499 
2 203 19.965 3.63 9.075 0 10.3341 
2 204 18.15 5.445 9.075 1 2.01948e-28 
1 205 18.15 7.26 0 1 2.05104e-28 
2 206 19.965 9.075 0 0 9.21864 
2 207 19.965 7.26 1.815 0 11.8965 
2 208 18.15 9.075 1.815 1 2.01948e-28 
2 209 18.15 7.26 3.63 1 2.01948e-28 
1 210 19.965 9.075 3.63 0 13.1948 
2 211 19.965 7.26 5.445 0 4.21806 
2 212 18.15 9.075 5.445 1 2.01948e-28 
2 213 18.15 7.26 7.26 1 2.01948e-28 
1 214 19.965 9.075 7.26 0 12.345 
1 215 19.965 7.26 9.075 0 13.2686 
1 216 18.15 9.075 9.075 1 2.01948e-28 
2 217 21.7802 1.43245 8.22854 0 9.03063 
2 218 31.7694 5.80184 2.38447 0 11.5097 
2 219 22.8046 7.39284 7.39754 0 11.9283 
2 220 42.1376 4.17634 5.65644 0 23.0375 
2 221 39.8784 0.37649 0.582197 0 15.2693 
2 222 33.3169 7.30882 0.0838332 0 12.3012 
2 223 30.1308 0.727912 4.54642 0 7.01942 
2 224 36.7379 6.41396 10.1325 0 9.21912 
2 225 40.2095 5.73825 1.0015 0 15.6683 
2 226 36.0224 4.53023 7.63597 0 17.182 
2 227 41.6068 8.30034 2.85811 0 9.05695 
2 228 22.8138 8.01593 3.57447 0 23.2635 
2 229 35.5589 8.23731 10.7924 0 5.07508 
2 230 29.7371 2.69025 10.7 0 19.2793 
2 231 37.5195 8.20405 7.09504 0 5.4249 
2 232 23.3631 6.8785 9.63446 0 15.4296 
2 233 27.7196 4.75252 8.34713 0 8.69785 
2 234 32.185 2.58936 2.99374 0 8.13865 
2 235 29.6048 1.81326 5.29817 0 5.63135 
2 236 41.331 9.90128 0.659546 0 41.2145 
2 237 41.4833 5.49425 5.62242 0 13.5436 
2 238 28.7285 10.7445 5.37941 0 4.16848 
2 239 27.5766 0.988081 10.3212 0 11.2835 
2 240 23.3863 5.4527 4.18331 0 9.26536 
2 241 27.8148 9.95147 5.76895 0 6.53507 
2 242 31.8956 10.2473 0.545415 0 7.78414 
2 243 38.3658 8.38753 9.01493 0 16.6306 
2 244 24.5105 0.172799 7.49728 0 11.7292 
2 245 40.6904 6.85573 8.01748 0 27.1939 
2 246 37.5795 10.8841 9.67655 0 19.5537 
2 247 26.859 3.33584 3.82256 0 9.91408 
2 248 32.9591 6.43723 9.21274 0 8.6192 
2 249 30.7551 9.16405 2.93287 0 16.6102 
2 250 30.8273 5.85124 5.09562 0 8.03885 
2 251 28.0355 1.94199 1.67401 0 9.15929 
2 252 34.2306 8.7382 0.359955 0 9.40985 
2 253 33.4203 5.42845 10.4039 0 12.741 
2 254 38.0778 6.03942 9.70013 0 12.1845 
2 255 35.3892 9.16981 1.73987 0 4.80066 
2 256 26.4137 7.78319 1.42035 0 14.5311 
2 257 23.7618 2.99026 0.0326657 0 10.6821 
2 258 30.8033 0.292683 7.72994 0 11.2237 
2 259 42.2074 2.61263 1.96996 0 7.53005 
2 260 28.696 9.65933 7.10092 0 7.36972 
2 261 25.0543 7.41986 4.20152 0 9.82519 
2 262 30.2247 5.44218 1.60663 0 15.2124 
2 263 34.5689 9.20832 6.42628 0 6.95765 
2 264 42.5888 6.05643 1.61337 0 7.21054 
2 265 43.1964 4.45147 1.54442 0 12.3945 
2 266 34.0835 2.74566 5.31992 0 12.8611 
2 267 31.8866 10.4663 1.37248 0 12.7453 
2 268 26.1307 3.47663 6.85274 0 9.59973 
2 269 24.5398 7.09215 6.76959 0 2.85223 
2 270 39.2709 2.699 5.18834 0 8.40166 
2 271 30.2593 2.2134 0.309006 0 11.4809 
2 272 41.4184 4.64456 1.54661 0 6.81107 
2 273 42.4163 4.46831 1.42864 0 4.97148 
2 274 41.0694 1.00377 1.76634 0 7.80916 
2 275 23.3278 3.97854 2.75579 0 3.87334 
2 276 24.7227 8.52854 4.9583 0 8.98572 
2 277 29.3926 4.92555 8.80941 0 16.0479 
2 278 42.0719 7.09643 2.34405 0 7.10456 
2 279 36.5815 9.89816 2.72387 0 12.6081 
2 280 40.5295 5.13205 5.50986 0 7.2477 
2 281 34.8566 8.90324 8.23114 0 6.0522 
2 282 31.8477 10.3604 6.89052 0 13.468 
2 283 31.3486 8.98095 7.503 0 4.24612 
2 284 37.0741 10.75 10.3936 0 15.7251 
2 285 40.3207 3.15065 5.85257 0 12.6796 
2 286 32.9844 1.1264 4.50877 0 14.5541 
2 287 34.3409 9.5458 4.79202 0 7.66715 
2 288 37.6739 9.46628 7.79335 0 10.5552 
2 289 39.2197 7.69417 8.07729 0 6.54988 
2 290 22.1958 9.64888 5.71711 0 9.92877 
2 291 31.8712 0.709961 7.76917 0 5.01777 
2 292 32.4292 7.27103 7.42751 0 15.51 
2 293 26.1263 9.98214 9.42946 0 8.66457 
2 294 41.1646 5.9236 1.51583 0 8.7928 
2 295 31.5886 10.7742 2.34714 0 12.0533 
2 296 31.4944 3.43833 5.60464 0 9.55258 
2 297 40.9792 4.78861 5.09142 0 11.9571 
2 298 39.3488 3.97657 2.30344 0 19.5673 
2 299 43.5408 1.67275 6.86602 0 63.7824 
2 300 35.2041 0.00648001 0.00957231 0 11.4806 
2 301 38.6236 7.92068 3.47584 0 13.827 
2 302 30.878 7.43236 7.41132 0 5.51701 
2 303 26.2506 9.10861 7.72015 0 7.98447 
2 304 39.8293 1.02964 0.890123 0 7.71374 
2 305 38.42 6.85604 2.32885 0 13.7556 
2 306 26.431 0.882752 4.23429 0 10.3318 
2 307 42.518 10.3188 4.24551 0 24.1908 
2 308 27.6435 7.53772 3.09314 0 22.4997 
2 309 38.7001 8.53629 4.60059 0 9.13481 
2 310 27.9254 2.11231 0.123234 0 17.0773 
2 311 25.9579 10.7074 2.65775 0 10.3081 
2 312 39.6336 1.48599 4.33578 0 10.2145 
2 313 34.87 1.92623 9.02078 0 8.06843 
2 314 25.2154 10.7586 2.80057 0 9.34613 
2 315 26.8678 1.10683 2.38938 0 5.75109 
2 316 35.6041 7.57952 8.65504 0 7.79652 
2 317 36.9442 8.19952 7.29108 0 6.75841 
2 318 35.5761 0.614639 6.51458 0 8.70535 
2 319 26.7242 3.47149 7.6212 0 13.2413 
2 320 24.3378 8.3044 5.72948 0 8.87476 
2 321 33.8442 6.4032 3.59007 0 12.8194 
2 322 37.0911 1.55776 1.76078 0 20.9956 
2 323 32.3504 9.36786 8.85646 0 11.2976 
2 324 33.9079 8.04767 3.44132 0 11.6716 
2 325 24.7275 5.75589 3.38395 0 11.8792 
2 326 34.5892 5.64193 4.69193 0 13.4365 
2 327 27.4176 4.03176 4.27996 0 17.9064 
2 328 31.5127 5.18251 4.22348 0 10.347 
2 329 27.863 0.852286 4.02649 0 6.17591 
2 330 27.3104 7.31573 7.36422 0 14.8638 
2 331 32.9735 7.93455 7.84916 0 7.88263 
2 332 42.3567 5.01699 10.2384 0 14.6119 
2 333 28.7836 5.01413 5.63171 0 6.89554 
2 334 36.1843 4.37596 6.59542 0 8.98666 
2 335 43.266 1.63779 7.29737 0 39.601 
2 336 29.2683 5.89922 5.69338 0 7.4037 
2 337 39.8408 0.162812 2.98614 0 9.92858 
2 338 35.7841 5.94743 9.99536 0 3.73521 
2 339 27.5868 10.5642 2.68692 0 7.8013 
2 340 40.1618 7.55792 4.96313 0 10.4387 
2 341 39.5765 0.240491 1.75056 0 12.0546 
2 342 37.1774 7.70823 4.75499 0 7.19928 
2 343 34.4651 8.18612 10.7978 0 6.47414 
2 344 36.9319 3.04388 8.20957 0 11.1557 
2 345 25.5083 0.0463252 5.39808 0 6.22289 
2 346 23.5206 1.77595 9.83695 0 11.4415 
2 347 38.8336 8.13134 4.75268 0 8.84629 
2 348 21.9181 6.36833 5.64623 0 7.62717 
2 349 23.236 5.92441 4.24418 0 9.31187 
2 350 26.4807 4.20103 6.82652 0 12.5524 
2 351 36.1342 7.72449 5.86602 0 7.47515 
2 352 27.8847 8.8855 4.0501 0 8.76406 
2 353 36.7233 3.37774 0.101795 0 11.033 
2 354 24.0407 5.67326 8.44934 0 13.8901 
2 355 26.5865 0.601986 0.769214 0 8.27061 
2 356 25.2708 7.88179 3.23457 0 3.94426 
2 357 22.8821 5.20329 4.97849 0 7.73844 
2 358 33.1053 4.86227 1.63689 0 10.2247 
2 359 28.0078 9.0788 7.57549 0 8.9007 
2 360 34.364 7.41788 3.6065 0 7.90621 
2 361 23.0318 10.7472 5.90666 0 10.3442 
2 362 21.8161 9.32394 0.319681 0 11.1105 
2 363 30.003 5.33231 6.27452 0 8.93846 
2 364 37.8745 7.39793 5.83995 0 10.619 
2 365 22.5551 1.3341 10.5998 0 10.7744 
2 366 25.8806 3.82586 6.68783 0 12.0374 
2 367 35.0138 1.37141 6.02067 0 10.2522 
2 368 42.5587 3.88691 9.12693 0 9.11354 
2 369 42.9992 2.82066 2.73914 0 19.2958 
2 370 31.022 8.85409 9.77829 0 14.9075 
2 371 27.1071 8.28312 7.56699 0 12.6121 
2 372 31.6213 2.87082 7.24733 0 11.7596 
2 373 24.3189 2.28213 1.23793 0 17.0495 
2 374 33.6931 0.0662043 1.91636 0 11.3825 
2 375 34.834 4.70348 0.898496 0 16.0227 
2 376 36.7519 4.08713 9.10629 0 3.96257 
2 377 24.4728 10.5997 0.322728 0 12.8919 
2 378 23.5301 5.38232 8.37917 0 14.5238 
2 379 42.1232 2.72419 3.91667 0 12.7231 
2 380 38.5313 5.44451 8.15935 0 7.35858 
2 381 36.4141 7.42334 8.24123 0 7.36876 
2 382 22.5721 2.51093 2.41396 0 15.6464 
2 383 34.0335 7.10705 6.71489 0 10.391 
2 384 29.8705 2.44809 2.5449 0 8.08119 
2 385 36.0026 1.80695 8.1033 0 13.5109 
2 386 25.2595 0.518784 7.20911 0 18.1972 
2 387 24.5013 10.3363 5.27273 0 12.6741 
2 388 35.3064 9.95373 0.195416 0 8.92253 
2 389 34.7074 7.86118 5.40778 0 9.77127 
2 390 22.9495 4.80938 5.65381 0 12.4168 
2 391 38.5929 0.71173 4.82199 0 14.4479 
2 392 43.063 5.0937 3.58342 0 21.708 
2 393 31.4924 8.09425 2.23617 0 5.89266 
2 394 25.5126 4.05674 10.2336 0 11.2948 
2 395 42.7945 2.77649 0.76595 0 16.8322 
2 396 24.4774 5.73182 1.74331 0 7.41497 
2 397 33.0557 1.14546 9.16476 0 15.3116 
2 398 29.8073 4.61617 3.56351 0 7.11088 
2 399 37.321 6.28109 9.49482 0 8.04609 
2 400 38.2946 9.11055 7.62073 0 7.65215 
2 401 30.2537 10.1848 6.59501 0 4.84517 
2 402 29.6662 5.87521 4.95574 0 12.373 
2 403 30.5289 2.6184 0.904803 0 8.36079 
2 404 30.962 5.14422 3.15556 0 7.4529 
2 405 24.0662 2.35645 8.73398 0 10.3009 
2 406 33.2676 7.28345 9.40507 0 7.13566 
2 407 27.0889 7.74894 2.87129 0 12.813 
2 408 30.1179 0.88215 5.00682 0 7.21209 
2 409 26.8518 8.66139 5.35073 0 8.66538 
2 410 21.8503 2.89804 7.23846 0 11.7469 
2 411 31.0407 2.03452 10.4922 0 9.50043 
2 412 24.6994 8.66687 10.3024 0 14.3732 
2 413 25.5078 6.59935 0.694821 0 8.04186 
2 414 29.3484 3.18498 5.55018 0 3.56733 
2 415 39.7667 9.08595 7.91097 0 33.9145 
2 416 28.9551 8.7347 6.8799 0 8.191 
2 417 22.7675 0.451069 1.6696 0 11.2615 
2 418 38.4867 0.672255 5.65521 0 20.2167 
2 419 42.0169 2.40141 2.22769 0 9.27916 
2 420 23.7183 7.61963 7.69336 0 10.0444 
2 421 32.5531 2.85077 7.74901 0 14.7139 
2 422 30.0208 2.18502 2.5331 0 4.64602 
2 423 31.2782 5.11284 9.37833 0 8.95743 
2 424 43.0643 4.84081 0.372907 0 14.3089 
2 425 33.1877 0.344546 8.20206 0 7.38111 
2 426 34.6648 8.96128 3.58911 0 7.47768 
2 427 26.8347 5.84279 4.68943 0 2.81355 
2 428 30.57 10.752 10.5296 0 9.64197 
2 429 40.3046 9.44723 3.39338 0 6.88015 
2 430 25.0119 10.8638 6.96441 0 11.2673 
2 431 31.9747 10.1486 7.52251 0 7.3273 
2 432 39.5396 5.89731 6.23786 0 10.6721 
ITEM: TIMESTEP
10
ITEM: NUMBER OF ATOMS
432
ITEM: BOX BOUNDS xy xz yz pp pp pp
-7.2599999999999998e+00 5.4449999999999996e+01 0.0000000000000000e+00
0.0000000000000000e+00 1.0890000000000001e+01 0.0000000000000000e+00
0.0000000000000000e+00 1.0890000000000001e+01 0.0000000000000000e+00
ITEM: ATOMS type id x y z c_ptm[1] c_centro 
2 1 0 0 0 0 19.7653 
1 2 1.815 1.815 0 1 1.57772e-29 
2 3 1.815 0 1.815 1 1.57772e-29 
2 4 0 1.815 1.815 0 19.7653 
1 5 0 0 3.63 0 19.7653 
2 6 1.815 1.815 3.63 1 1.26218e-29 
2 7 1.815 0 5.445 1 1.57772e-29 
2 8 0 1.815 5.445 0 19.7653 
2 9 0 0 7.26 0 19.7653 
2 10 1.815 1.815 7.26 1 1.26218e-29 
1 11 1.815 0 9.075 1 1.57772e-29 
1 12 0 1.815 9.075 0 19.7653 
2 13 0 3.63 0 0 19.7653 
1 14 1.815 5.445 0 1 1.57772e-29 
1 15 1.815 3.63 1.815 1 1.26218e-29 
1 16 0 5.445 1.815 0 19.7653 
1 17 0 3.63 3.63 0 19.7653 
2 18 1.815 5.445 3.63 1 1.26218e-29 
1 19 1.815 3.63 5.445 1 1.26218e-29 
2 20 0 5.445 5.445 0 19.7653 
2 21 0 3.63 7.26 0 19.7653 
2 22 1.815 5.445 7.26 1 1.26218e-29 
1 23 1.815 3.63 9.075 1 1.26218e-29 
1 24 0 5.445 9.075 0 19.7653 
1 25 0 7.26 0 0 19.7653 
2 26 1.815 9.075 0 1 1.57772e-29 
1 27 1.815 7.26 1.815 1 1.26218e-29 
1 28 0 9.075 1.815 0 19.7653 
2 29 0 7.26 3.63 0 19.7653 
1 30 1.815 9.075 3.63 1 1.26218e-29 
2 31 1.815 7.26 5.445 1 1.26218e-29 
1 32 0 9.075 5.445 0 19.7653 
2 33 0 7.26 7.26 0 19.7653 
1 34 1.815 9.075 7.26 1 1.26218e-29 
1 35 1.815 7.26 9.075 1 1.26218e-29 
2 36 0 9.075 9.075 0 19.7653 
1 37 3.63 0 0 1 1.19907e-28 
2 38 5.445 1.815 0 1 5.36425e-29 
1 39 5.445 0 1.815 1 5.36425e-29 
1 40 3.63 1.815 1.815 1 1.13596e-28 
2 41 3.63 0 3.63 1 1.16751e-28 
2 42 5.445 1.815 3.63 1 5.04871e-29 
1 43 5.445 0 5.445 1 5.36425e-29 
1 44 3.63 1.815 5.445 1 1.13596e-28 
2 45 3.63 0 7.26 1 1.16751e-28 
2 46 5.445 1.815 7.26 1 5.04871e-29 
1 47 5.445 0 9.075 1 5.36425e-29 
1 48 3.63 1.815 9.075 1 1.13596e-28 
2 49 3.63 3.63 0 1 1.16751e-28 
1 50 5.445 5.445 0 1 5.36425e-29 
1 51 5.445 3.63 1.815 1 5.04871e-29 
1 52 3.63 5.445 1.815 1 1.13596e-28 
2 53 3.63 3.63 3.63 1 1.13596e-28 
1 54 5.445 5.445 3.63 1 5.04871e-29 
2 55 5.445 3.63 5.445 1 5.04871e-29 
1 56 3.63 5.445 5.445 1 1.13596e-28 
2 57 3.63 3.63 7.26 1 1.13596e-28 
2 58 5.445 5.445 7.26 1 5.04871e-29 
2 59 5.445 3.63 9.075 1 5.04871e-29 
1 60 3.63 5.445 9.075 1 1.13596e-28 
1 61 3.63 7.26 0 1 1.16751e-28 
2 62 5.445 9.075 0 1 5.36425e-29 
2 63 5.445 7.26 1.815 1 5.04871e-29 
1 64 3.63 9.075 1.815 1 1.13596e-28 
1 65 3.63 7.26 3.63 1 1.13596e-28 
1 66 5.445 9.075 3.63 1 5.04871e-29 
2 67 5.445 7.26 5.445 1 5.04871e-29 
2 68 3.63 9.075 5.445 1 1.13596e-28 
2 69 3.63 7.26 7.26 1 1.13596e-28 
2 70 5.445 9.075 7.26 1 5.04871e-29 
1 71 5.445 7.26 9.075 1 5.04871e-29 
1 72 3.63 9.075 9.075 1 1.13596e-28 
1 73 7.26 0 0 1 1.89327e-29 
1 74 9.075 1.815 0 1 5.36425e-29 
1 75 9.075 0 1.815 1 5.36425e-29 
2 76 7.26 1.815 1.815 1 1.26218e-29 
2 77 7.26 0 3.63 1 1.57772e-29 
1 78 9.075 1.815 3.63 1 5.04871e-29 
1 79 9.075 0 5.445 1 5.36425e-29 
2 80 7.26 1.815 5.445 1 1.26218e-29 
2 81 7.26 0 7.26 1 1.57772e-29 
1 82 9.075 1.815 7.26 1 5.04871e-29 
2 83 9.075 0 9.075 1 5.36425e-29 
2 84 7.26 1.815 9.075 1 1.26218e-29 
2 85 7.26 3.63 0 1 1.57772e-29 
1 86 9.075 5.445 0 1 5.36425e-29 
1 87 9.075 3.63 1.815 1 5.04871e-29 
2 88 7.26 5.445 1.815 1 1.26218e-29 
1 89 7.26 3.63 3.63 1 1.26218e-29 
2 90 9.075 5.445 3.63 1 5.04871e-29 
2 91 9.075 3.63 5.445 1 5.04871e-29 
1 92 7.26 5.445 5.445 1 1.26218e-29 
2 93 7.26 3.63 7.26 1 1.26218e-29 
2 94 9.075 5.445 7.26 1 5.04871e-29 
1 95 9.075 3.63 9.075 1 5.04871e-29 
1 96 7.26 5.445 9.075 1 1.26218e-29 
2 97 7.26 7.26 0 1 1.57772e-29 
1 98 9.075 9.075 0 1 5.36425e-29 
1 99 9.075 7.26 1.815 1 5.04871e-29 
2 100 7.26 9.075 1.815 1 1.26218e-29 
2 101 7.26 7.26 3.63 1 1.26218e-29 
2 102 9.075 9.075 3.63 1 5.04871e-29 
2 103 9.075 7.26 5.445 1 5.04871e-29 
1 104 7.26 9.075 5.445 1 1.26218e-29 
2 105 7.26 7.26 7.26 1 1.26218e-29 
1 106 9.075 9.075 7.26 1 5.04871e-29 
2 107 9.075 7.26 9.075 1 5.04871e-29 
1 108 7.26 9.075 9.075 1 1.26218e-29 
2 109 10.89 0 0 1 6.31089e-30 
2 110 12.705 1.815 0 1 3.15544e-30 
2 111 12.705 0 1.815 1 3.15544e-30 
1 112 10.89 1.815 1.815 1 0 
1 113 10.89 0 3.63 1 3.15544e-30 
2 114 12.705 1.815 3.63 1 0 
1 115 12.705 0 5.445 1 3.15544e-30 
1 116 10.89 1.815 5.445 1 0 
1 117 10.89 0 7.26 1 3.15544e-30 
1 118 12.705 1.815 7.26 1 0 
2 119 12.705 0 9.075 1 3.15544e-30 
1 120 10.89 1.815 9.075 1 0 
2 121 10.89 3.63 0 1 3.15544e-30 
2 122 12.705 5.445 0 1 3.15544e-30 
2 123 12.705 3.63 1.815 1 0 
1 124 10.89 5.445 1.815 1 0 
1 125 10.89 3.63 3.63 1 0 
1 126 12.705 5.445 3.63 1 0 
2 127 12.705 3.63 5.445 1 0 
1 128 10.89 5.445 5.445 1 0 
2 129 10.89 3.63 7.26 1 0 
2 130 12.705 5.445 7.26 1 0 
2 131 12.705 3.63 9.075 1 0 
1 132 10.89 5.445 9.075 1 0 
2 133 10.89 7.26 0 1 3.15544e-30 
2 134 12.705 9.075 0 1 3.15544e-30 
2 135 12.705 7.26 1.815 1 0 
1 136 10.89 9.075 1.815 1 0 
2 137 10.89 7.26 3.63 1 0 
1 138 12.705 9.075 3.63 1 0 
2 139 12.705 7.26 5.445 1 0 
2 140 10.89 9.075 5.445 1 0 
2 141 10.89 7.26 7.26 1 0 
2 142 12.705 9.075 7.26 1 0 
1 143 12.705 7.26 9.075 1 0 
1 144 10.89 9.075 9.075 1 0 
2 145 14.52 0 0 1 4.60695e-28 
1 146 16.335 1.815 0 1 2.05104e-28 
2 147 16.335 0 1.815 1 2.05104e-28 
2 148 14.52 1.815 1.815 1 4.54384e-28 
2 149 14.52 0 3.63 1 4.57539e-28 
2 150 16.335 1.815 3.63 1 2.01948e-28 
1 151 16.335 0 5.445 1 2.05104e-28 
2 152 14.52 1.815 5.445 1 4.54384e-28 
1 153 14.52 0 7.26 1 4.57539e-28 
2 154 16.335 1.815 7.26 1 2.01948e-28 
2 155 16.335 0 9.075 1 2.05104e-28 
2 156 14.52 1.815 9.075 1 4.54384e-28 
1 157 14.52 3.63 0 1 4.57539e-28 
1 158 16.335 5.445 0 1 2.05104e-28 
1 159 16.335 3.63 1.815 1 2.01948e-28 
1 160 14.52 5.445 1.815 1 4.54384e-28 
1 161 14.52 3.63 3.63 1 4.54384e-28 
1 162 16.335 5.445 3.63 1 2.01948e-28 
1 163 16.335 3.63 5.445 1 2.01948e-28 
1 164 14.52 5.445 5.445 1 4.54384e-28 
1 165 14.52 3.63 7.26 1 4.54384e-28 
1 166 16.335 5.445 7.26 1 2.01948e-28 
2 167 16.335 3.63 9.075 1 2.01948e-28 
2 168 14.52 5.445 9.075 1 4.54384e-28 
1 169 14.52 7.26 0 1 4.57539e-28 
2 170 16.335 9.075 0 1 2.05104e-28 
1 171 16.335 7.26 1.815 1 2.01948e-28 
2 172 14.52 9.075 1.815 1 4.54384e-28 
2 173 14.52 7.26 3.63 1 4.54384e-28 
2 174 16.335 9.075 3.63 1 2.01948e-28 
1 175 16.335 7.26 5.445 1 2.01948e-28 
2 176 14.52 9.075 5.445 1 4.54384e-28 
2 177 14.52 7.26 7.26 1 4.54384e-28 
1 178 16.335 9.075 7.26 1 2.01948e-28 
2 179 16.335 7.26 9.075 1 2.01948e-28 
2 180 14.52 9.075 9.075 1 4.54384e-28 
1 181 18.15 0 0 1 2.08259e-28 
1 182 19.965 1.815 0 0 6.86754 
1 183 19.965 0 1.815 0 7.96056 
1 184 18.15 1.815 1.815 1 2.01948e-28 
2 185 18.15 0 3.63 1 2.05104e-28 
2 186 19.965 1.815 3.63 0 11.2982 
2 187 19.965 0 5.445 0 13.036 
2 188 18.15 1.815 5.445 1 2.01948e-28 
2 189 18.15 0 7.26 1 2.05104e-28 
1 190 19.965 1.815 7.26 0 8.59913 
2 191 19.965 0 9.075 0 8.13633 
1 192 18.15 1.815 9.075 1 2.01948e-28 
1 193 18.15 3.63 0 1 2.05104e-28 
1 194 19.965 5.445 0 0 13.1769 
2 195 19.965 3.63 1.815 0 8.13714 
2 196 18.15 5.445 1.815 1 2.01948e-28 
2 197 18.15 3.63 3.63 1 2.01948e-28 
2 198 19.965 5.445 3.63 0 8.05328 
2 199 19.965 3.63 5.445 0 5.52442 
1 200 18.15 5.445 5.445 1 2.01948e-28 
2 201 18.15 3.63 7.26 1 2.01948e-28 
2 202 19.965 5.445 7.26 0 3.88302 
2 203 19.965 3.63 9.075 0 7.13439 
2 204 18.15 5.445 9.075 1 2.01948e-28 
1 205 18.15 7.26 0 1 2.05104e-28 
2 206 19.965 9.075 0 0 9.23235 
2 207 19.965 7.26 1.815 0 12.1451 
2 208 18.15 9.075 1.815 1 2.01948e-28 
2 209 18.15 7.26 3.63 1 2.01948e-28 
1 210 19.965 9.075 3.63 0 12.7067 
2 211 19.965 7.26 5.445 0 3.63987 
2 212 18.15 9.075 5.445 1 2.01948e-28 
2 213 18.15 7.26 7.26 1 2.01948e-28 
1 214 19.965 9.075 7.26 0 7.82017 
1 215 19.965 7.26 9.075 0 12.4043 
1 216 18.15 9.075 9.075 1 2.01948e-28 
2 217 21.7964 1.36738 8.27424 0 7.31799 
2 218 31.9453 5.9999 2.2628 0 7.60697 
2 219 22.352 7.30406 7.27517 0 9.62017 
2 220 42.3852 3.9692 5.75426 0 15.2825 
2 221 39.931 10.7175 0.00259563 0 11.4061 
2 222 33.1497 7.20128 0.260686 0 11.1276 
2 223 30.2245 0.329859 3.54993 0 7.48574 
2 224 36.6512 6.70392 10.6417 0 10.5563 
2 225 39.8236 5.71074 0.783901 0 10.3554 
2 226 35.8828 4.68034 7.9292 0 9.60485 
2 227 41.5763 8.46383 2.92482 0 10.2829 
2 228 22.7973 8.06196 3.55491 0 16.7755 
2 229 36.0246 8.15734 10.7419 0 6.09942 
2 230 29.2789 3.09047 10.2707 0 8.61715 
2 231 38.1485 8.07045 6.79854 0 6.25361 
2 232 23.3285 6.92357 9.71205 0 13.4188 
2 233 27.7072 4.8235 8.38009 0 13.2625 
2 234 32.1957 2.60185 2.99367 0 9.65188 
2 235 29.3913 2.03866 5.3926 0 7.33978 
2 236 41.3651 9.86414 0.663244 0 27.15 
2 237 41.9251 5.998 5.83567 0 21.8816 
2 238 28.8444 10.8385 5.32708 0 5.99497 
2 239 27.5784 0.815673 10.1279 0 14.3669 
2 240 23.8355 4.63348 3.77348 0 12.9649 
2 241 27.5953 9.90516 5.81143 0 7.61551 
2 242 31.9999 10.0509 10.878 0 3.84035 
2 243 38.2511 8.39127 9.28801 0 8.60688 
2 244 23.778 0.158691 8.05433 0 7.04905 
2 245 40.7793 6.80613 8.01694 0 20.3572 
2 246 37.8788 0.074043 9.2534 0 12.4446 
2 247 26.6127 3.03764 3.62623 0 10.3297 
2 248 32.7846 6.04883 9.02226 0 10.5717 
2 249 30.6414 9.242 3.03835 0 11.9055 
2 250 31.0996 6.05929 5.25109 0 6.93533 
2 251 28.1314 1.99541 1.75299 0 7.73996 
2 252 33.8455 9.19736 0.759532 0 5.72855 
2 253 33.4527 5.32835 10.4665 0 10.1138 
2 254 38.6925 5.87446 9.92387 0 13.0834 
2 255 35.3819 9.10362 1.79175 0 5.43644 
2 256 26.4188 7.86484 1.27676 0 15.1309 
2 257 23.7121 3.16403 10.8809 0 11.5632 
2 258 30.4058 0.347642 7.87247 0 10.3747 
2 259 42.429 3.16187 1.27099 0 7.30165 
2 260 28.8329 10.2103 7.13302 0 6.39071 
2 261 25.0562 7.10941 4.44325 0 7.47932 
2 262 30.132 5.44605 1.49513 0 18.4101 
2 263 34.5636 9.28309 6.53522 0 6.91794 
2 264 42.8823 6.11182 1.53824 0 14.8372 
2 265 43.9204 4.3637 1.87182 0 27.0301 
2 266 34.0447 2.82794 5.29501 0 13.462 
2 267 31.9904 10.4754 1.52197 0 9.06604 
2 268 26.2391 2.27747 6.83815 0 10.4446 
2 269 24.7496 6.87684 6.66165 0 10.0477 
2 270 39.0306 2.76986 5.14835 0 10.8219 
2 271 30.0603 1.57783 0.380846 0 11.0399 
2 272 40.9531 4.43548 1.65246 0 10.3775 
2 273 42.1587 4.33083 1.43752 0 7.21677 
2 274 41.2483 0.935329 1.78722 0 8.26017 
2 275 23.3523 4.01156 2.73013 0 6.72206 
2 276 24.9052 8.79758 4.62406 0 5.53817 
2 277 29.4382 4.93206 8.81455 0 10.4923 
2 278 42.1136 7.1401 2.44499 0 8.67559 
2 279 36.6564 9.93999 2.77267 0 8.68437 
2 280 39.9077 5.22965 5.75078 0 6.94234 
2 281 34.824 9.01509 8.26627 0 6.56673 
2 282 31.8878 10.5404 6.07712 0 7.84537 
2 283 31.2033 8.83258 7.47851 0 5.50932 
2 284 36.8507 10.6695 10.7969 0 13.5036 
2 285 40.4923 3.1728 6.01021 0 17.6231 
2 286 32.9718 1.10169 4.51146 0 7.59333 
2 287 34.2559 9.73374 4.89652 0 7.65076 
2 288 37.1102 9.94964 7.9837 0 11.1171 
2 289 39.2252 7.45011 8.01468 0 8.37396 
2 290 22.0676 9.47422 5.68811 0 10.7048 
2 291 31.9777 1.02567 7.75857 0 6.03292 
2 292 32.2617 6.92902 7.2201 0 9.64181 
2 293 26.1414 10.0104 9.45358 0 6.28591 
2 294 41.1881 6.15707 1.64067 0 8.84778 
2 295 31.4734 0.0544776 2.78194 0 8.95869 
2 296 31.5035 3.46061 5.52285 0 7.71977 
2 297 41.1261 4.3093 4.36353 0 9.46589 
2 298 39.3445 3.96998 2.31069 0 13.3905 
2 299 44.0404 1.73923 6.07185 0 70.7217 
2 300 35.1006 0.482967 10.8109 0 9.44535 
2 301 38.6155 7.89073 3.18453 0 17.2675 
2 302 30.6803 7.32445 7.40378 0 6.62486 
2 303 25.9646 9.30994 7.72749 0 11.6456 
2 304 39.7197 1.82839 0.876786 0 14.519 
2 305 38.3965 6.74187 2.21366 0 9.11141 
2 306 26.3047 0.969754 4.26821 0 11.9892 
2 307 42.5123 10.3226 4.24375 0 18.6357 
2 308 28.3317 7.18653 3.3205 0 9.86093 
2 309 38.4169 9.66173 4.4348 0 7.37972 
2 310 27.9249 2.31466 0.0977504 0 12.5288 
2 311 26.3567 10.518 2.54323 0 9.75826 
2 312 39.8691 1.54719 4.19352 0 4.25792 
2 313 34.762 1.9585 9.1359 0 9.58853 
2 314 24.5534 10.7935 2.92147 0 10.0266 
2 315 26.8038 1.29623 2.4137 0 8.05828 
2 316 35.2373 7.56462 8.88364 0 3.79974 
2 317 36.1771 8.30428 7.43437 0 6.69183 
2 318 35.7855 0.299009 6.68043 0 9.60569 
2 319 27.0966 3.23279 8.25316 0 8.20553 
2 320 24.0751 8.28465 6.11295 0 7.37037 
2 321 33.5769 6.0879 3.47389 0 9.20679 
2 322 37.0932 1.55366 1.76071 0 12.777 
2 323 32.4855 9.36017 9.04504 0 9.34463 
2 324 33.3029 8.34749 3.23722 0 9.53212 
2 325 24.9147 5.74012 3.37331 0 10.4494 
2 326 34.6696 5.54602 4.81693 0 12.57 
2 327 27.6551 4.28444 4.45087 0 8.80967 
2 328 31.8493 5.0429 4.34549 0 9.00094 
2 329 28.047 0.914059 4.03945 0 5.45806 
2 330 27.4008 6.84489 7.26466 0 7.28299 
2 331 33.2253 8.27409 7.98206 0 5.76826 
2 332 42.1415 5.15615 10.068 0 12.4502 
2 333 28.4294 4.63857 5.62526 0 8.50581 
2 334 36.2465 4.32875 6.19488 0 10.4695 
2 335 42.7581 1.57672 8.08846 0 21.332 
2 336 28.9186 6.45179 6.07176 0 5.88887 
2 337 39.8867 0.176608 3.26315 0 9.20956 
2 338 35.373 5.75762 9.94981 0 7.26713 
2 339 27.787 10.4181 2.65537 0 11.9103 
2 340 40.4343 7.48089 4.9899 0 7.62279 
2 341 39.2845 10.8877 1.89293 0 10.4501 
2 342 37.019 7.71297 4.48285 0 6.37213 
2 343 34.4607 7.77121 10.3647 0 6.6353 
2 344 37.0933 2.96082 8.10088 0 14.1058 
2 345 25.787 0.168929 5.36285 0 8.17668 
2 346 23.6155 1.67178 9.80727 0 10.0525 
2 347 39.0919 7.34176 5.19459 0 6.02952 
2 348 21.822 6.4671 5.70646 0 11.3251 
2 349 23.0204 7.01936 4.17583 0 12.0141 
2 350 27.0867 5.05459 6.70211 0 7.74335 
2 351 36.0956 7.68679 5.95594 0 7.54661 
2 352 27.9841 8.98123 4.0523 0 8.86098 
2 353 36.7248 3.37104 0.127187 0 11.8689 
2 354 24.7822 6.00319 8.52465 0 9.72313 