ITEM: TIMESTEP
0
ITEM: NUMBER OF ATOMS
432
ITEM: BOX BOUNDS xy xz yz pp pp pp
-7.2599999999999998e+00 5.4449999999999996e+01 0.0000000000000000e+00
0.0000000000000000e+00 1.0890000000000001e+01 0.0000000000000000e+00
0.0000000000000000e+00 1.0890000000000001e+01 0.0000000000000000e+00
ITEM: ATOMS type id x y z 
2 1 0 0 0 
1 2 1.815 1.815 0 
1 3 1.815 0 1.815 
2 4 0 1.815 1.815 
1 5 0 0 3.63 
1 6 1.815 1.815 3.63 
1 7 1.815 0 5.445 
2 8 0 1.815 5.445 
2 9 0 0 7.26 
1 10 1.815 1.815 7.26 
1 11 1.815 0 9.075 
1 12 0 1.815 9.075 
2 13 0 3.63 0 
2 14 1.815 5.445 0 
2 15 1.815 3.63 1.815 
1 16 0 5.445 1.815 
1 17 0 3.63 3.63 
2 18 1.815 5.445 3.63 
2 19 1.815 3.63 5.445 
2 20 0 5.445 5.445 
1 21 0 3.63 7.26 
2 22 1.815 5.445 7.26 
1 23 1.815 3.63 9.075 
2 24 0 5.445 9.075 
2 25 0 7.26 0 
2 26 1.815 9.075 0 
2 27 1.815 7.26 1.815 
1 28 0 9.075 1.815 
2 29 0 7.26 3.63 
2 30 1.815 9.075 3.63 
1 31 1.815 7.26 5.445 
2 32 0 9.075 5.445 
1 33 0 7.26 7.26 
2 34 1.815 9.075 7.26 
1 35 1.815 7.26 9.075 
1 36 0 9.075 9.075 
1 37 3.63 0 0 
2 38 5.445 1.815 0 
1 39 5.445 0 1.815 
1 40 3.63 1.815 1.815 
1 41 3.63 0 3.63 
2 42 5.445 1.815 3.63 
2 43 5.445 0 5.445 
1 44 3.63 1.815 5.445 
2 45 3.63 0 7.26 
1 46 5.445 1.815 7.26 
1 47 5.445 0 9.075 
2 48 3.63 1.815 9.075 
2 49 3.63 3.63 0 
1 50 5.445 5.445 0 
2 51 5.445 3.63 1.815 
1 52 3.63 5.445 1.815 
2 53 3.63 3.63 3.63 
2 54 5.445 5.445 3.63 
2 55 5.445 3.63 5.445 
2 56 3.63 5.445 5.445 
2 57 3.63 3.63 7.26 
2 58 5.445 5.445 7.26 
1 59 5.445 3.63 9.075 
1 60 3.63 5.445 9.075 
2 61 3.63 7.26 0 
1 62 5.445 9.075 0 
1 63 5.445 7.26 1.815 
2 64 3.63 9.075 1.815 
1 65 3.63 7.26 3.63 
1 66 5.445 9.075 3.63 
2 67 5.445 7.26 5.445 
2 68 3.63 9.075 5.445 
2 69 3.63 7.26 7.26 
1 70 5.445 9.075 7.26 
1 71 5.445 7.26 9.075 
2 72 3.63 9.075 9.075 
2 73 7.26 0 0 
2 74 9.075 1.815 0 
2 75 9.075 0 1.815 
1 76 7.26 1.815 1.815 
1 77 7.26 0 3.63 
2 78 9.075 1.815 3.63 
1 79 9.075 0 5.445 
1 80 7.26 1.815 5.445 
1 81 7.26 0 7.26 
2 82 9.075 1.815 7.26 
2 83 9.075 0 9.075 
2 84 7.26 1.815 9.075 
1 85 7.26 3.63 0 
1 86 9.075 5.445 0 
2 87 9.075 3.63 1.815 
1 88 7.26 5.445 1.815 
1 89 7.26 3.63 3.63 
1 90 9.075 5.445 3.63 
2 91 9.075 3.63 5.445 
2 92 7.26 5.445 5.445 
2 93 7.26 3.63 7.26 
1 94 9.075 5.445 7.26 
1 95 9.075 3.63 9.075 
2 96 7.26 5.445 9.075 
2 97 7.26 7.26 0 
1 98 9.075 9.075 0 
2 99 9.075 7.26 1.815 
1 100 7.26 9.075 1.815 
2 101 7.26 7.26 3.63 
2 102 9.075 9.075 3.63 
1 103 9.075 7.26 5.445 
1 104 7.26 9.075 5.445 
1 105 7.26 7.26 7.26 
1 106 9.075 9.075 7.26 
2 107 9.075 7.26 9.075 
2 108 7.26 9.075 9.075 
2 109 10.89 0 0 
2 110 12.705 1.815 0 
2 111 12.705 0 1.815 
1 112 10.89 1.815 1.815 
1 113 10.89 0 3.63 
1 114 12.705 1.815 3.63 
2 115 12.705 0 5.445 
2 116 10.89 1.815 5.445 
2 117 10.89 0 7.26 
2 118 12.705 1.815 7.26 
1 119 12.705 0 9.075 
1 120 10.89 1.815 9.075 
2 121 10.89 3.63 0 
1 122 12.705 5.445 0 
2 123 12.705 3.63 1.815 
1 124 10.89 5.445 1.815 
1 125 10.89 3.63 3.63 
2 126 12.705 5.445 3.63 
2 127 12.705 3.63 5.445 
2 128 10.89 5.445 5.445 
2 129 10.89 3.63 7.26 
2 130 12.705 5.445 7.26 
2 131 12.705 3.63 9.075 
2 132 10.89 5.445 9.075 
1 133 10.89 7.26 0 
2 134 12.705 9.075 0 
2 135 12.705 7.26 1.815 
1 136 10.89 9.075 1.815 
1 137 10.89 7.26 3.63 
2 138 12.705 9.075 3.63 
1 139 12.705 7.26 5.445 
2 140 10.89 9.075 5.445 
1 141 10.89 7.26 7.26 
1 142 12.705 9.075 7.26 
2 143 12.705 7.26 9.075 
1 144 10.89 9.075 9.075 
1 145 14.52 0 0 
2 146 16.335 1.815 0 
2 147 16.335 0 1.815 
2 148 14.52 1.815 1.815 
1 149 14.52 0 3.63 
2 150 16.335 1.815 3.63 
1 151 16.335 0 5.445 
1 152 14.52 1.815 5.445 
2 153 14.52 0 7.26 
1 154 16.335 1.815 7.26 
2 155 16.335 0 9.075 
2 156 14.52 1.815 9.075 
2 157 14.52 3.63 0 
1 158 16.335 5.445 0 
1 159 16.335 3.63 1.815 
2 160 14.52 5.445 1.815 
1 161 14.52 3.63 3.63 
1 162 16.335 5.445 3.63 
2 163 16.335 3.63 5.445 
2 164 14.52 5.445 5.445 
1 165 14.52 3.63 7.26 
2 166 16.335 5.445 7.26 
1 167 16.335 3.63 9.075 
1 168 14.52 5.445 9.075 
2 169 14.52 7.26 0 
1 170 16.335 9.075 0 
2 171 16.335 7.26 1.815 
2 172 14.52 9.075 1.815 
1 173 14.52 7.26 3.63 
2 174 16.335 9.075 3.63 
1 175 16.335 7.26 5.445 
2 176 14.52 9.075 5.445 
1 177 14.52 7.26 7.26 
2 178 16.335 9.075 7.26 
2 179 16.335 7.26 9.075 
2 180 14.52 9.075 9.075 
2 181 18.15 0 0 
2 182 19.965 1.815 0 
1 183 19.965 0 1.815 
1 184 18.15 1.815 1.815 
2 185 18.15 0 3.63 
1 186 19.965 1.815 3.63 
1 187 19.965 0 5.445 
1 188 18.15 1.815 5.445 
1 189 18.15 0 7.26 
2 190 19.965 1.815 7.26 
1 191 19.965 0 9.075 
2 192 18.15 1.815 9.075 
1 193 18.15 3.63 0 
1 194 19.965 5.445 0 
1 195 19.965 3.63 1.815 
2 196 18.15 5.445 1.815 
1 197 18.15 3.63 3.63 
1 198 19.965 5.445 3.63 
2 199 19.965 3.63 5.445 
1 200 18.15 5.445 5.445 
1 201 18.15 3.63 7.26 
1 202 19.965 5.445 7.26 
1 203 19.965 3.63 9.075 
2 204 18.15 5.445 9.075 
2 205 18.15 7.26 0 
2 206 19.965 9.075 0 
1 207 19.965 7.26 1.815 
2 208 18.15 9.075 1.815 
2 209 18.15 7.26 3.63 
2 210 19.965 9.075 3.63 
2 211 19.965 7.26 5.445 
2 212 18.15 9.075 5.445 
1 213 18.15 7.26 7.26 
2 214 19.965 9.075 7.26 
1 215 19.965 7.26 9.075 
1 216 18.15 9.075 9.075 
2 217 21.7802 1.43245 8.22854 
2 218 31.7694 5.80184 2.38447 
2 219 22.8046 7.39284 7.39754 
2 220 42.1376 4.17634 5.65644 
2 221 39.8784 0.37649 0.582197 
2 222 33.3169 7.30882 0.0838332 
2 223 30.1308 0.727912 4.54642 
2 224 36.7379 6.41396 10.1325 
2 225 40.2095 5.73825 1.0015 
2 226 36.0224 4.53023 7.63597 
2 227 41.6068 8.30034 2.85811 
2 228 22.8138 8.01593 3.57447 
2 229 35.5589 8.23731 10.7924 
2 230 29.7371 2.69025 10.7 
2 231 37.5195 8.20405 7.09504 
2 232 23.3631 6.8785 9.63446 
2 233 27.7196 4.75252 8.34713 
2 234 32.185 2.58936 2.99374 
2 235 29.6048 1.81326 5.29817 
2 236 41.331 9.90128 0.659546 
2 237 41.4833 5.49425 5.62242 
2 238 28.7285 10.7445 5.37941 
2 239 27.5766 0.988081 10.3212 
2 240 23.3863 5.4527 4.18331 
2 241 27.8148 9.95147 5.76895 
2 242 31.8956 10.2473 0.545415 
2 243 38.3658 8.38753 9.01493 
2 244 24.5105 0.172799 7.49728 
2 245 40.6904 6.85573 8.01748 
2 246 37.5795 10.8841 9.67655 
2 247 26.859 3.33584 3.82256 
2 248 32.9591 6.43723 9.21274 
2 249 30.7551 9.16405 2.93287 
2 250 30.8273 5.85124 5.09562 
2 251 28.0355 1.94199 1.67401 
2 252 34.2306 8.7382 0.359955 
2 253 33.4203 5.42845 10.4039 
2 254 38.0778 6.03942 9.70013 
2 255 35.3892 9.16981 1.73987 
2 256 26.4137 7.78319 1.42035 
2 257 23.7618 2.99026 0.0326657 
2 258 30.8033 0.292683 7.72994 
2 259 42.2074 2.61263 1.96996 
2 260 28.696 9.65933 7.10092 
2 261 25.0543 7.41986 4.20152 
2 262 30.2247 5.44218 1.60663 
2 263 34.5689 9.20832 6.42628 
2 264 42.5888 6.05643 1.61337 
2 265 43.1964 4.45147 1.54442 
2 266 34.0835 2.74566 5.31992 
2 267 31.8866 10.4663 1.37248 
2 268 26.1307 3.47663 6.85274 
2 269 24.5398 7.09215 6.76959 
2 270 39.2709 2.699 5.18834 
2 271 30.2593 2.2134 0.309006 
2 272 41.4184 4.64456 1.54661 
2 273 42.4163 4.46831 1.42864 
2 274 41.0694 1.00377 1.76634 
2 275 23.3278 3.97854 2.75579 
2 276 24.7227 8.52854 4.9583 
2 277 29.3926 4.92555 8.80941 
2 278 42.0719 7.09643 2.34405 
2 279 36.5815 9.89816 2.72387 
2 280 40.5295 5.13205 5.50986 
2 281 34.8566 8.90324 8.23114 
2 282 31.8477 10.3604 6.89052 
2 283 31.3486 8.98095 7.503 
2 284 37.0741 10.75 10.3936 
2 285 40.3207 3.15065 5.85257 
2 286 32.9844 1.1264 4.50877 
2 287 34.3409 9.5458 4.79202 
2 288 37.6739 9.46628 7.79335 
2 289 39.2197 7.69417 8.07729 
2 290 22.1958 9.64888 5.71711 
2 291 31.8712 0.709961 7.76917 
2 292 32.4292 7.27103 7.42751 
2 293 26.1263 9.98214 9.42946 
2 294 41.1646 5.9236 1.51583 
2 295 31.5886 10.7742 2.34714 
2 296 31.4944 3.43833 5.60464 
2 297 40.9792 4.78861 5.09142 
2 298 39.3488 3.97657 2.30344 
2 299 43.5408 1.67275 6.86602 
2 300 35.2041 0.00648001 0.00957231 
2 301 38.6236 7.92068 3.47584 
2 302 30.878 7.43236 7.41132 
2 303 26.2506 9.10861 7.72015 
2 304 39.8293 1.02964 0.890123 
2 305 38.42 6.85604 2.32885 
2 306 26.431 0.882752 4.23429 
2 307 42.518 10.3188 4.24551 
2 308 27.6435 7.53772 3.09314 
2 309 38.7001 8.53629 4.60059 
2 310 27.9254 2.11231 0.123234 
2 311 25.9579 10.7074 2.65775 
2 312 39.6336 1.48599 4.33578 
2 313 34.87 1.92623 9.02078 
2 314 25.2154 10.7586 2.80057 
2 315 26.8678 1.10683 2.38938 
2 316 35.6041 7.57952 8.65504 
2 317 36.9442 8.19952 7.29108 
2 318 35.5761 0.614639 6.51458 
2 319 26.7242 3.47149 7.6212 
2 320 24.3378 8.3044 5.72948 
2 321 33.8442 6.4032 3.59007 
2 322 37.0911 1.55776 1.76078 
2 323 32.3504 9.36786 8.85646 
2 324 33.9079 8.04767 3.44132 
2 325 24.7275 5.75589 3.38395 
2 326 34.5892 5.64193 4.69193 
2 327 27.4176 4.03176 4.27996 
2 328 31.5127 5.18251 4.22348 
2 329 27.863 0.852286 4.02649 
2 330 27.3104 7.31573 7.36422 
2 331 32.9735 7.93455 7.84916 
2 332 42.3567 5.01699 10.2384 
2 333 28.7836 5.01413 5.63171 
2 334 36.1843 4.37596 6.59542 
2 335 43.266 1.63779 7.29737 
2 336 29.2683 5.89922 5.69338 
2 337 39.8408 0.162812 2.98614 
2 338 35.7841 5.94743 9.99536 
2 339 27.5868 10.5642 2.68692 
2 340 40.1618 7.55792 4.96313 
2 341 39.5765 0.240491 1.75056 
2 342 37.1774 7.70823 4.75499 
2 343 34.4651 8.18612 10.7978 
2 344 36.9319 3.04388 8.20957 
2 345 25.5083 0.0463252 5.39808 
2 346 23.5206 1.77595 9.83695 
2 347 38.8336 8.13134 4.75268 
2 348 21.9181 6.36833 5.64623 
2 349 23.236 5.92441 4.24418 
2 350 26.4807 4.20103 6.82652 
2 351 36.1342 7.72449 5.86602 
2 352 27.8847 8.8855 4.0501 
2 353 36.7233 3.37774 0.101795 
2 354 24.0407 5.67326 8.44934 
2 355 26.5865 0.601986 0.769214 
2 356 25.2708 7.88179 3.23457 
2 357 22.8821 5.20329 4.97849 
2 358 33.1053 4.86227 1.63689 
2 359 28.0078 9.0788 7.57549 
2 360 34.364 7.41788 3.6065 
2 361 23.0318 10.7472 5.90666 
2 362 21.8161 9.32394 0.319681 
2 363 30.003 5.33231 6.27452 
2 364 37.8745 7.39793 5.83995 
2 365 22.5551 1.3341 10.5998 
2 366 25.8806 3.82586 6.68783 
2 367 35.0138 1.37141 6.02067 
2 368 42.5587 3.88691 9.12693 
2 369 42.9992 2.82066 2.73914 
2 370 31.022 8.85409 9.77829 
2 371 27.1071 8.28312 7.56699 
2 372 31.6213 2.87082 7.24733 
2 373 24.3189 2.28213 1.23793 
2 374 33.6931 0.0662043 1.91636 
2 375 34.834 4.70348 0.898496 
2 376 36.7519 4.08713 9.10629 
2 377 24.4728 10.5997 0.322728 
2 378 23.5301 5.38232 8.37917 
2 379 42.1232 2.72419 3.91667 
2 380 38.5313 5.44451 8.15935 
2 381 36.4141 7.42334 8.24123 
2 382 22.5721 2.51093 2.41396 
2 383 34.0335 7.10705 6.71489 
2 384 29.8705 2.44809 2.5449 
2 385 36.0026 1.80695 8.1033 
2 386 25.2595 0.518784 7.20911 
2 387 24.5013 10.3363 5.27273 
2 388 35.3064 9.95373 0.195416 
2 389 34.7074 7.86118 5.40778 
2 390 22.9495 4.80938 5.65381 
2 391 38.5929 0.71173 4.82199 
2 392 43.063 5.0937 3.58342 
2 393 31.4924 8.09425 2.23617 
2 394 25.5126 4.05674 10.2336 
2 395 42.7945 2.77649 0.76595 
2 396 24.4774 5.73182 1.74331 
2 397 33.0557 1.14546 9.16476 
2 398 29.8073 4.61617 3.56351 
2 399 37.321 6.28109 9.49482 
2 400 38.2946 9.11055 7.62073 
2 401 30.2537 10.1848 6.59501 
2 402 29.6662 5.87521 4.95574 
2 403 30.5289 2.6184 0.904803 
2 404 30.962 5.14422 3.15556 
2 405 24.0662 2.35645 8.73398 
2 406 33.2676 7.28345 9.40507 
2 407 27.0889 7.74894 2.87129 
2 408 30.1179 0.88215 5.00682 
2 409 26.8518 8.66139 5.35073 
2 410 21.8503 2.89804 7.23846 
2 411 31.0407 2.03452 10.4922 
2 412 24.6994 8.66687 10.3024 
2 413 25.5078 6.59935 0.694821 
2 414 29.3484 3.18498 5.55018 
2 415 39.7667 9.08595 7.91097 
2 416 28.9551 8.7347 6.8799 
2 417 22.7675 0.451069 1.6696 
2 418 38.4867 0.672255 5.65521 
2 419 42.0169 2.40141 2.22769 
2 420 23.7183 7.61963 7.69336 
2 421 32.5531 2.85077 7.74901 
2 422 30.0208 2.18502 2.5331 
2 423 31.2782 5.11284 9.37833 
2 424 43.0643 4.84081 0.372907 
2 425 33.1877 0.344546 8.20206 
2 426 34.6648 8.96128 3.58911 
2 427 26.8347 5.84279 4.68943 
2 428 30.57 10.752 10.5296 
2 429 40.3046 9.44723 3.39338 
2 430 25.0119 10.8638 6.96441 
2 431 31.9747 10.1486 7.52251 
2 432 39.5396 5.89731 6.23786 
ITEM: TIMESTEP
10
ITEM: NUMBER OF ATOMS
432
ITEM: BOX BOUNDS xy xz yz pp pp pp
-7.2599999999999998e+00 5.4449999999999996e+01 0.0000000000000000e+00
0.0000000000000000e+00 1.0890000000000001e+01 0.0000000000000000e+00
0.0000000000000000e+00 1.0890000000000001e+01 0.0000000000000000e+00
ITEM: ATOMS type id x y z 
2 1 0 0 0 
1 2 1.815 1.815 0 
1 3 1.815 0 1.815 
2 4 0 1.815 1.815 
1 5 0 0 3.63 
1 6 1.815 1.815 3.63 
1 7 1.815 0 5.445 
2 8 0 1.815 5.445 
2 9 0 0 7.26 
1 10 1.815 1.815 7.26 
1 11 1.815 0 9.075 
1 12 0 1.815 9.075 
2 13 0 3.63 0 
2 14 1.815 5.445 0 
2 15 1.815 3.63 1.815 
1 16 0 5.445 1.815 
1 17 0 3.63 3.63 
2 18 1.815 5.445 3.63 
2 19 1.815 3.63 5.445 
2 20 0 5.445 5.445 
1 21 0 3.63 7.26 
2 22 1.815 5.445 7.26 
1 23 1.815 3.63 9.075 
2 24 0 5.445 9.075 
2 25 0 7.26 0 
2 26 1.815 9.075 0 
2 27 1.815 7.26 1.815 
1 28 0 9.075 1.815 
2 29 0 7.26 3.63 
2 30 1.815 9.075 3.63 
1 31 1.815 7.26 5.445 
2 32 0 9.075 5.445 
1 33 0 7.26 7.26 
2 34 1.815 9.075 7.26 
1 35 1.815 7.26 9.075 
1 36 0 9.075 9.075 
1 37 3.63 0 0 
2 38 5.445 1.815 0 
1 39 5.445 0 1.815 
1 40 3.63 1.815 1.815 
1 41 3.63 0 3.63 
2 42 5.445 1.815 3.63 
2 43 5.445 0 5.445 
1 44 3.63 1.815 5.445 
2 45 3.63 0 7.26 
1 46 5.445 1.815 7.26 
1 47 5.445 0 9.075 
2 48 3.63 1.815 9.075 
2 49 3.63 3.63 0 
1 50 5.445 5.445 0 
2 51 5.445 3.63 1.815 
1 52 3.63 5.445 1.815 
2 53 3.63 3.63 3.63 
2 54 5.445 5.445 3.63 
2 55 5.445 3.63 5.445 
2 56 3.63 5.445 5.445 
2 57 3.63 3.63 7.26 
2 58 5.445 5.445 7.26 
1 59 5.445 3.63 9.075 
1 60 3.63 5.445 9.075 
2 61 3.63 7.26 0 
1 62 5.445 9.075 0 
1 63 5.445 7.26 1.815 
2 64 3.63 9.075 1.815 
1 65 3.63 7.26 3.63 
1 66 5.445 9.075 3.63 
2 67 5.445 7.26 5.445 
2 68 3.63 9.075 5.445 
2 69 3.63 7.26 7.26 
1 70 5.445 9.075 7.26 
1 71 5.445 7.26 9.075 
2 72 3.63 9.075 9.075 
2 73 7.26 0 0 
2 74 9.075 1.815 0 
2 75 9.075 0 1.815 
1 76 7.26 1.815 1.815 
1 77 7.26 0 3.63 
2 78 9.075 1.815 3.63 
1 79 9.075 0 5.445 
1 80 7.26 1.815 5.445 
1 81 7.26 0 7.26 
2 82 9.075 1.815 7.26 
2 83 9.075 0 9.075 
2 84 7.26 1.815 9.075 
1 85 7.26 3.63 0 
1 86 9.075 5.445 0 
2 87 9.075 3.63 1.815 
1 88 7.26 5.445 1.815 
1 89 7.26 3.63 3.63 
1 90 9.075 5.445 3.63 
2 91 9.075 3.63 5.445 
2 92 7.26 5.445 5.445 
2 93 7.26 3.63 7.26 
1 94 9.075 5.445 7.26 
1 95 9.075 3.63 9.075 
2 96 7.26 5.445 9.075 
2 97 7.26 7.26 0 
1 98 9.075 9.075 0 
2 99 9.075 7.26 1.815 
1 100 7.26 9.075 1.815 
2 101 7.26 7.26 3.63 
2 102 9.075 9.075 3.63 
1 103 9.075 7.26 5.445 
1 104 7.26 9.075 5.445 
1 105 7.26 7.26 7.26 
1 106 9.075 9.075 7.26 
2 107 9.075 7.26 9.075 
2 108 7.26 9.075 9.075 
2 109 10.89 0 0 
2 110 12.705 1.815 0 
2 111 12.705 0 1.815 
1 112 10.89 1.815 1.815 
1 113 10.89 0 3.63 
1 114 12.705 1.815 3.63 
2 115 12.705 0 5.445 
2 116 10.89 1.815 5.445 
2 117 10.89 0 7.26 
2 118 12.705 1.815 7.26 
1 119 12.705 0 9.075 
1 120 10.89 1.815 9.075 
2 121 10.89 3.63 0 
1 122 12.705 5.445 0 
2 123 12.705 3.63 1.815 
1 124 10.89 5.445 1.815 
1 125 10.89 3.63 3.63 
2 126 12.705 5.445 3.63 
2 127 12.705 3.63 5.445 
2 128 10.89 5.445 5.445 
2 129 10.89 3.63 7.26 
2 130 12.705 5.445 7.26 
2 131 12.705 3.63 9.075 
2 132 10.89 5.445 9.075 
1 133 10.89 7.26 0 
2 134 12.705 9.075 0 
2 135 12.705 7.26 1.815 
1 136 10.89 9.075 1.815 
1 137 10.89 7.26 3.63 
2 138 12.705 9.075 3.63 
1 139 12.705 7.26 5.445 
2 140 10.89 9.075 5.445 
1 141 10.89 7.26 7.26 
1 142 12.705 9.075 7.26 
2 143 12.705 7.26 9.075 
1 144 10.89 9.075 9.075 
1 145 14.52 0 0 
2 146 16.335 1.815 0 
2 147 16.335 0 1.815 
2 148 14.52 1.815 1.815 
1 149 14.52 0 3.63 
2 150 16.335 1.815 3.63 
1 151 16.335 0 5.445 
1 152 14.52 1.815 5.445 
2 153 14.52 0 7.26 
1 154 16.335 1.815 7.26 
2 155 16.335 0 9.075 
2 156 14.52 1.815 9.075 
2 157 14.52 3.63 0 
1 158 16.335 5.445 0 
1 159 16.335 3.63 1.815 
2 160 14.52 5.445 1.815 
1 161 14.52 3.63 3.63 
1 162 16.335 5.445 3.63 
2 163 16.335 3.63 5.445 
2 164 14.52 5.445 5.445 
1 165 14.52 3.63 7.26 
2 166 16.335 5.445 7.26 
1 167 16.335 3.63 9.075 
1 168 14.52 5.445 9.075 
2 169 14.52 7.26 0 
1 170 16.335 9.075 0 
2 171 16.335 7.26 1.815 
2 172 14.52 9.075 1.815 
1 173 14.52 7.26 3.63 
2 174 16.335 9.075 3.63 
1 175 16.335 7.26 5.445 
2 176 14.52 9.075 5.445 
1 177 14.52 7.26 7.26 
2 178 16.335 9.075 7.26 
2 179 16.335 7.26 9.075 
2 180 14.52 9.075 9.075 
2 181 18.15 0 0 
2 182 19.965 1.815 0 
1 183 19.965 0 1.815 
1 184 18.15 1.815 1.815 
2 185 18.15 0 3.63 
1 186 19.965 1.815 3.63 
1 187 19.965 0 5.445 
1 188 18.15 1.815 5.445 
1 189 18.15 0 7.26 
2 190 19.965 1.815 7.26 
1 191 19.965 0 9.075 
2 192 18.15 1.815 9.075 
1 193 18.15 3.63 0 
1 194 19.965 5.445 0 
1 195 19.965 3.63 1.815 
2 196 18.15 5.445 1.815 
1 197 18.15 3.63 3.63 
1 198 19.965 5.445 3.63 
2 199 19.965 3.63 5.445 
1 200 18.15 5.445 5.445 
1 201 18.15 3.63 7.26 
1 202 19.965 5.445 7.26 
1 203 19.965 3.63 9.075 
2 204 18.15 5.445 9.075 
2 205 18.15 7.26 0 
2 206 19.965 9.075 0 
1 207 19.965 7.26 1.815 
2 208 18.15 9.075 1.815 
2 209 18.15 7.26 3.63 
2 210 19.965 9.075 3.63 
2 211 19.965 7.26 5.445 
2 212 18.15 9.075 5.445 
1 213 18.15 7.26 7.26 
2 214 19.965 9.075 7.26 
1 215 19.965 7.26 9.075 
1 216 18.15 9.075 9.075 
2 217 21.7932 1.36856 8.2723 
2 218 31.9453 5.9999 2.2628 
2 219 22.3517 7.30404 7.27497 
2 220 42.3852 3.9692 5.75426 
2 221 39.931 10.7175 0.00259235 
2 222 33.1497 7.20128 0.260687 
2 223 30.2245 0.329857 3.54992 
2 224 36.6512 6.70393 10.6417 
2 225 39.8236 5.71074 0.7839 
2 226 35.8828 4.68034 7.9292 
2 227 41.5763 8.46383 2.92482 
2 228 22.7972 8.06163 3.55513 
2 229 36.0246 8.15734 10.7419 
2 230 29.2789 3.09047 10.2707 
2 231 38.1485 8.07045 6.79854 
2 232 23.3282 6.92337 9.71214 
2 233 27.7072 4.8235 8.38009 
2 234 32.1957 2.60185 2.99367 
2 235 29.3913 2.03866 5.39261 
2 236 41.3651 9.86414 0.663244 
2 237 41.9251 5.998 5.83568 
2 238 28.8444 10.8385 5.32708 
2 239 27.5784 0.815672 10.1279 
2 240 23.8317 4.63353 3.77699 
2 241 27.5953 9.90516 5.81143 
2 242 31.9999 10.0509 10.878 
2 243 38.2511 8.39127 9.28801 
2 244 23.778 0.158717 8.05431 
2 245 40.7793 6.80613 8.01694 
2 246 37.8788 0.0740435 9.2534 
2 247 26.6126 3.03765 3.62624 
2 248 32.7846 6.04882 9.02226 
2 249 30.6414 9.242 3.03835 
2 250 31.0996 6.05929 5.25109 
2 251 28.1314 1.99541 1.75299 
2 252 33.8455 9.19736 0.759534 
2 253 33.4527 5.32835 10.4665 
2 254 38.6925 5.87446 9.92387 
2 255 35.3819 9.10362 1.79175 
2 256 26.4188 7.86483 1.27676 
2 257 23.7117 3.1641 10.881 
2 258 30.4058 0.347642 7.87247 
2 259 42.429 3.16187 1.27099 
2 260 28.8329 10.2103 7.13302 
2 261 25.056 7.10918 4.44327 
2 262 30.132 5.44605 1.49513 
2 263 34.5636 9.2831 6.53522 
2 264 42.8823 6.11182 1.53824 
2 265 43.9204 4.3637 1.87182 
2 266 34.0447 2.82794 5.29501 
2 267 31.9904 10.4754 1.52197 
2 268 26.2391 2.2775 6.83812 
2 269 24.7494 6.87654 6.66149 
2 270 39.0306 2.76986 5.14835 
2 271 30.0603 1.57783 0.380847 
2 272 40.9531 4.43548 1.65246 
2 273 42.1587 4.33083 1.43752 
2 274 41.2483 0.935328 1.78722 
2 275 23.3521 4.01205 2.73064 
2 276 24.9052 8.79746 4.62406 
2 277 29.4382 4.93206 8.81455 
2 278 42.1136 7.1401 2.44499 
2 279 36.6564 9.93999 2.77267 
2 280 39.9077 5.22965 5.75078 
2 281 34.824 9.01509 8.26627 
2 282 31.8878 10.5404 6.07712 
2 283 31.2033 8.83258 7.47851 
2 284 36.8507 10.6695 10.7969 
2 285 40.4923 3.1728 6.01021 
2 286 32.9718 1.10169 4.51146 
2 287 34.2559 9.73374 4.89652 
2 288 37.1102 9.94965 7.9837 
2 289 39.2252 7.45011 8.01468 
2 290 22.0674 9.47388 5.68809 
2 291 31.9777 1.02567 7.75857 
2 292 32.2617 6.92902 7.2201 
2 293 26.1414 10.0104 9.45357 
2 294 41.1881 6.15707 1.64067 
2 295 31.4734 0.0544785 2.78194 
2 296 31.5035 3.46061 5.52285 
2 297 41.1261 4.3093 4.36353 
2 298 39.3445 3.96998 2.31069 
2 299 44.0404 1.73923 6.07185 
2 300 35.1006 0.48297 10.8109 
2 301 38.6155 7.89073 3.18453 
2 302 30.6803 7.32445 7.40378 
2 303 25.9646 9.30995 7.72749 
2 304 39.7197 1.82839 0.876786 
2 305 38.3965 6.74187 2.21366 
2 306 26.3047 0.969757 4.26821 
2 307 42.5123 10.3226 4.24375 
2 308 28.3317 7.18652 3.3205 
2 309 38.4169 9.66174 4.4348 
2 310 27.9249 2.31466 0.0977501 
2 311 26.3567 10.518 2.54323 
2 312 39.8691 1.54719 4.19352 
2 313 34.762 1.9585 9.1359 
2 314 24.5533 10.7935 2.92152 
2 315 26.8038 1.29623 2.4137 
2 316 35.2373 7.56462 8.88364 
2 317 36.1771 8.30428 7.43437 
2 318 35.7855 0.299007 6.68043 
2 319 27.0966 3.23279 8.25315 
2 320 24.075 8.28444 6.11291 
2 321 33.5769 6.08789 3.47389 
2 322 37.0932 1.55366 1.76071 
2 323 32.4855 9.36017 9.04504 
2 324 33.3029 8.34749 3.23722 
2 325 24.914 5.73986 3.37354 
2 326 34.6696 5.54602 4.81694 
2 327 27.655 4.28445 4.45087 
2 328 31.8493 5.0429 4.34549 
2 329 28.047 0.914059 4.03945 
2 330 27.4008 6.84489 7.26466 
2 331 33.2253 8.27409 7.98206 
2 332 42.1415 5.15615 10.068 
2 333 28.4294 4.63857 5.62526 
2 334 36.2465 4.32875 6.19488 
2 335 42.7581 1.57672 8.08846 
2 336 28.9185 6.45179 6.07176 
2 337 39.8867 0.176608 3.26315 
2 338 35.373 5.75762 9.9498 
2 339 27.787 10.4181 2.65537 
2 340 40.4343 7.48089 4.9899 
2 341 39.2845 10.8877 1.89293 
2 342 37.019 7.71297 4.48285 
2 343 34.4607 7.77121 10.3647 
2 344 37.0933 2.96082 8.10088 
2 345 25.787 0.16895 5.36284 
2 346 23.6154 1.67191 9.8074 
2 347 39.0919 7.34176 5.19459 
2 348 21.8233 6.46523 5.70522 
2 349 23.019 7.01604 4.17761 
2 350 27.0867 5.05461 6.70208 
2 351 36.0956 7.68679 5.95594 
2 352 27.9841 8.98123 4.0523 
2 353 36.7248 3.37104 0.127187 
2 354 24.782 6.00311 8.52456 
2 355 26.5095 0.546591 0.733981 
2 356 25.2412 8.05619 2.90266 
2 357 22.5142 5.19899 4.89537 
2 358 33.1114 4.82281 1.63665 
2 359 27.8984 9.14805 7.90742 
2 360 34.9024 7.16928 3.69005 
2 361 23.0361 0.0608406 5.97087 
2 362 21.8632 9.33051 0.327719 
2 363 30.2907 5.1175 6.67435 
2 364 37.9652 7.16047 5.98907 
2 365 22.3338 1.23355 10.7418 
2 366 24.7401 4.35866 6.1149 
2 367 34.8406 1.58769 5.86476 
2 368 42.5737 3.79144 9.04087 
2 369 43.5103 2.93373 2.96258 
2 370 30.9492 8.79746 9.81226 
2 371 26.988 8.27505 7.59516 
2 372 31.2594 2.85395 7.14032 
2 373 24.4015 2.20343 1.35906 
2 374 33.7465 0.07971 1.93102 
2 375 34.8911 4.69771 0.895003 
2 376 36.7687 4.22672 9.30618 
2 377 24.4689 10.6074 0.324359 
2 378 22.8254 4.9522 8.26621 
2 379 42.0344 2.73733 4.15085 
2 380 38.5523 5.40281 8.06584 
2 381 36.7334 7.20491 8.17899 
2 382 22.5088 2.44194 2.41098 
2 383 34.0907 7.00791 6.7512 
2 384 29.1855 3.59517 2.65457 
2 385 36.0578 1.67885 8.00556 
2 386 25.8935 1.29029 7.38221 
2 387 24.2836 10.1925 5.11586 
2 388 35.4106 9.68347 0.202032 
2 389 34.6169 7.81528 5.31453 
2 390 23.0357 4.39988 6.3117 
2 391 38.4589 0.587297 4.34037 
2 392 43.0598 5.09865 3.60463 
2 393 31.58 7.97441 2.15268 
2 394 25.5268 4.06495 10.2262 
2 395 42.9773 2.69546 0.344753 
2 396 24.4021 5.68812 1.69023 
2 397 33.0133 1.30083 9.41842 
2 398 29.5666 4.48988 3.61947 
2 399 37.1776 6.38663 8.91188 
2 400 38.7772 9.05643 7.40133 
2 401 30.1985 10.1395 6.45898 
2 402 29.6414 5.99899 4.31809 
2 403 30.8685 3.04456 1.47466 
2 404 30.8904 5.07103 3.01554 
2 405 24.1694 2.47033 8.52131 
2 406 33.4362 7.71072 9.42939 
2 407 26.5467 7.97771 2.71757 
2 408 30.3832 0.881406 5.87671 
2 409 26.7426 8.55568 5.4004 
2 410 21.8656 2.96727 7.19672 
2 411 31.4685 1.90689 10.1329 
2 412 24.6931 8.64749 10.3007 
2 413 25.5044 6.56474 0.588104 
2 414 29.3145 3.37573 5.59389 
2 415 40.03 9.24397 7.91793 
2 416 29.2237 8.27532 6.66693 
2 417 22.762 0.431275 1.68686 
2 418 38.4013 0.62308 6.24574 
2 419 41.2443 1.73005 2.95335 
2 420 23.9939 7.85808 7.9922 
2 421 32.9127 2.86015 7.9342 
2 422 30.6543 1.02142 2.52761 
2 423 31.2909 5.10296 9.38664 
2 424 43.36 4.91173 0.160303 
2 425 33.4577 0.167993 8.05927 
2 426 34.9433 9.19888 3.45325 
2 427 26.8226 5.88748 4.70638 
2 428 30.468 10.792 10.4666 
2 429 40.2957 9.4123 3.42819 
2 430 25.1096 10.0903 6.47779 
2 431 32.2185 9.98239 8.04798 
2 432 39.3478 6.04299 6.38171 
ITEM: TIMESTEP
20
ITEM: NUMBER OF ATOMS
432
ITEM: BOX BOUNDS xy xz yz pp pp pp
-7.2599999999999998e+00 5.4449999999999996e+01 0.0000000000000000e+00
0.0000000000000000e+00 1.0890000000000001e+01 0.0000000000000000e+00
0.0000000000000000e+00 1.0890000000000001e+01 0.0000000000000000e+00
ITEM: ATOMS type id x y z 
2 1 0 0 0 
1 2 1.815 1.815 0 
1 3 1.815 0 1.815 
2 4 0 1.815 1.815 
1 5 0 0 3.63 
1 6 1.815 1.815 3.63 
1 7 1.815 0 5.445 
2 8 0 1.815 5.445 
2 9 0 0 7.26 
1 10 1.815 1.815 7.26 
1 11 1.815 0 9.075 
1 12 0 1.815 9.075 
2 13 0 3.63 0 
2 14 1.815 5.445 0 
2 15 1.815 3.63 1.815 
1 16 0 5.445 1.815 
1 17 0 3.63 3.63 
2 18 1.815 5.445 3.63 
2 19 1.815 3.63 5.445 
2 20 0 5.445 5.445 
1 21 0 3.63 7.26 
2 22 1.815 5.445 7.26 
1 23 1.815 3.63 9.075 
2 24 0 5.445 9.075 
2 25 0 7.26 0 
2 26 1.815 9.075 0 
2 27 1.815 7.26 1.815 
1 28 0 9.075 1.815 
2 29 0 7.26 3.63 
2 30 1.815 9.075 3.63 
1 31 1.815 7.26 5.445 
2 32 0 9.075 5.445 
1 33 0 7.26 7.26 
2 34 1.815 9.075 7.26 
1 35 1.815 7.26 9.075 
1 36 0 9.075 9.075 
1 37 3.6028 10.8829 10.8671 
2 38 5.4451 1.81544 10.8899 
1 39 5.44558 0.000460309 1.81604 
1 40 3.64822 1.82983 1.81558 
1 41 3.63495 10.8639 3.66861 
2 42 5.4449 1.81591 3.62996 
2 43 5.44411 10.8899 5.44501 
1 44 3.6275 1.82363 5.42054 
2 45 3.65754 10.8744 7.28894 
1 46 5.44578 1.81501 7.2601 
1 47 5.44564 10.8896 9.07422 
2 48 3.64332 1.79269 9.07694 
2 49 3.60668 3.6276 10.8566 
1 50 5.44463 5.44458 10.8899 
2 51 5.44394 3.62923 1.81553 
1 52 3.6081 5.41662 1.80742 
2 53 3.56812 3.65207 3.6398 
2 54 5.44486 5.44432 3.63136 
2 55 5.44452 3.63113 5.44457 
2 56 3.66748 5.43821 5.48035 
2 57 3.5977 3.64985 7.2237 
2 58 5.44484 5.44459 7.25875 
1 59 5.4445 3.63013 9.07556 
1 60 3.58691 5.43856 9.1148 
2 61 3.59531 7.24702 0.0261476 
1 62 5.44433 9.07591 8.87756e-05 
1 63 5.44517 7.25965 1.8153 
2 64 3.65343 9.12475 1.81367 
1 65 3.60469 7.26337 3.58943 
1 66 5.44586 9.07565 3.6293 
2 67 5.44476 7.2591 5.44486 
2 68 3.68476 9.08507 5.42367 
2 69 3.61947 7.22993 7.27061 
1 70 5.44546 9.07436 7.26053 
1 71 5.44561 7.26034 9.07467 
2 72 3.60484 9.09125 9.06766 
2 73 7.26115 0.000487606 10.8892 
2 74 9.07473 1.81404 0.000253036 
2 75 9.07501 0.000360071 1.81435 
1 76 7.25944 1.81484 1.81481 
1 77 7.25946 10.8888 3.62928 
2 78 9.0749 1.81503 3.62988 
1 79 9.07384 10.89 5.44497 
1 80 7.26057 1.81463 5.44519 
1 81 7.2596 0.000147991 7.25988 
2 82 9.07554 1.81517 7.25988 
2 83 9.07414 0.000254267 9.07572 
2 84 7.26034 1.81433 9.07567 
1 85 7.2599 3.63066 10.8896 
1 86 9.0746 5.44456 0.00034394 
2 87 9.07534 3.62915 1.81486 
1 88 7.2603 5.44493 1.8146 
1 89 7.25977 3.63049 3.63017 
1 90 9.07525 5.44548 3.62927 
2 91 9.07543 3.62951 5.44545 
2 92 7.25874 5.44476 5.44511 
2 93 7.26003 3.63047 7.25958 
1 94 9.07492 5.44555 7.26039 
1 95 9.07537 3.63064 9.0754 
2 96 7.26044 5.4458 9.07455 
2 97 7.26074 7.26035 10.8894 
1 98 9.07576 9.07483 0.000815936 
2 99 9.07401 7.26049 1.81524 
1 100 7.25844 9.07523 1.81449 
2 101 7.26035 7.25986 3.62998 
2 102 9.07509 9.07464 3.62963 
1 103 9.07418 7.25971 5.44546 
1 104 7.26047 9.07483 5.44582 
1 105 7.25987 7.26018 7.2597 
1 106 9.07446 9.07515 7.25872 
2 107 9.07416 7.25996 9.07586 
2 108 7.26077 9.07488 9.07609 
2 109 10.8894 0.00062298 0.000348047 
2 110 12.7055 1.81575 0.00032106 
2 111 12.7053 10.8895 1.81452 
1 112 10.8904 1.81503 1.8167 
1 113 10.8897 10.8899 3.62983 
1 114 12.705 1.81516 3.63007 
2 115 12.7044 10.8896 5.44569 
2 116 10.8898 1.81524 5.44621 
2 117 10.8901 0.000833921 7.25904 
2 118 12.7043 1.81519 7.25968 
1 119 12.7047 10.8895 9.07461 
1 120 10.8897 1.81558 9.07453 
2 121 10.8906 3.62943 5.12971e-05 
1 122 12.7044 5.44555 0.000100075 
2 123 12.7056 3.63012 1.81411 
1 124 10.8899 5.44535 1.81489 
1 125 10.8899 3.63025 3.62917 
2 126 12.7054 5.44491 3.63036 
2 127 12.7043 3.63085 5.44585 
2 128 10.891 5.44382 5.44563 
2 129 10.8906 3.62996 7.25916 
2 130 12.7044 5.44397 7.25958 
2 131 12.7046 3.63005 9.07504 
2 132 10.8904 5.44493 9.07436 
1 133 10.8893 7.25993 0.000290528 
2 134 12.7057 9.07459 0.00074523 
2 135 12.7062 7.26043 1.81479 
1 136 10.8896 9.07462 1.81591 
1 137 10.8887 7.25986 3.6302 
2 138 12.7051 9.07502 3.62981 
1 139 12.7048 7.26046 5.44537 
2 140 10.8905 9.07595 5.44442 
1 141 10.8895 7.26081 7.25952 
1 142 12.7052 9.07425 7.26029 
2 143 12.7053 7.2597 9.07567 
1 144 10.8894 9.07364 9.07404 
1 145 14.52 10.8899 10.8889 
2 146 16.3346 1.81442 10.8899 
2 147 16.3352 0.000150351 1.81537 
2 148 14.5202 1.81527 1.81389 
1 149 14.5209 0.000888983 3.63179 
2 150 16.335 1.81464 3.62936 
1 151 16.3341 0.00189646 5.44539 
1 152 14.5202 1.81521 5.4446 
2 153 14.5199 10.8894 7.26024 
1 154 16.3354 1.81572 7.25915 
2 155 16.3346 0.000361149 9.075 
2 156 14.5202 1.81471 9.07571 
2 157 14.5189 3.62893 0.000655486 
1 158 16.3353 5.44327 10.8889 
1 159 16.335 3.63027 1.81633 
2 160 14.5195 5.44526 1.81503 
1 161 14.5209 3.62985 3.62952 
1 162 16.3342 5.44397 3.63117 
2 163 16.3347 3.63052 5.44494 
2 164 14.5194 5.44413 5.44517 
1 165 14.5206 3.62928 7.26049 
2 166 16.3348 5.44519 7.25991 
1 167 16.3347 3.63034 9.07372 
1 168 14.5206 5.44477 9.07475 
2 169 14.5198 7.26046 0.000348964 
1 170 16.3347 9.07557 10.8893 
2 171 16.3352 7.26031 1.8146 
2 172 14.5195 9.07447 1.81508 
1 173 14.5206 7.25926 3.63025 
2 174 16.3357 9.07542 3.62968 
1 175 16.3357 7.25833 5.44545 
2 176 14.5199 9.07571 5.44522 
1 177 14.5199 7.26061 7.2602 
2 178 16.3342 9.075 7.26011 
2 179 16.3347 7.26002 9.07506 
2 180 14.5204 9.07474 9.0747 
2 181 18.1496 0.000725416 0.000234566 
2 182 19.9534 1.82096 10.8885 
1 183 19.9693 0.000958039 1.81503 
1 184 18.1502 1.81641 1.81483 
2 185 18.15 10.8888 3.62932 
1 186 19.9673 1.81509 3.62984 
1 187 19.9673 0.00244668 5.44449 
1 188 18.1504 1.81456 5.44578 
1 189 18.1491 0.000413207 7.25977 
2 190 19.9463 1.8124 7.25319 
1 191 19.9627 10.8854 9.0775 
2 192 18.1501 1.81456 9.07601 
1 193 18.1502 3.63042 8.94488e-05 
1 194 19.9688 5.44384 0.000200879 
1 195 19.9686 3.63032 1.81562 
2 196 18.1505 5.44657 1.81462 
1 197 18.1505 3.62985 3.62995 
1 198 19.9581 5.44726 3.62395 
2 199 19.9686 3.62959 5.44446 
1 200 18.1489 5.44495 5.44518 
1 201 18.1495 3.63048 7.25976 
1 202 19.9611 5.44427 7.25994 
1 203 19.956 3.62513 9.0821 
2 204 18.1497 5.44546 9.07546 
2 205 18.1498 7.2594 0.000553141 
2 206 19.9388 9.07074 10.8851 
1 207 19.9689 7.25898 1.81518 
2 208 18.1498 9.0746 1.81612 
2 209 18.15 7.26134 3.62887 