ITEM: TIMESTEP
10
ITEM: NUMBER OF ATOMS
1728
ITEM: BOX BOUNDS xy xz yz pp pp pp
-7.2599999999999998e+00 5.4449999999999996e+01 0.0000000000000000e+00
0.0000000000000000e+00 2.1780000000000001e+01 0.0000000000000000e+00
0.0000000000000000e+00 2.1780000000000001e+01 0.0000000000000000e+00
ITEM: ATOMS type id c_ptm[1] c_ptm[2] c_ptm[3] 
2 1 0 inf 0 
2 2 1 1.65314e-08 2.5668 
1 3 1 1.65314e-08 2.5668 
2 4 0 inf 2.5668 
2 5 0 inf 2.5668 
1 6 1 1.16894e-08 2.5668 
2 7 1 2.86331e-08 2.5668 
1 8 0 inf 2.5668 
1 9 0 inf 2.5668 
2 10 1 1.16894e-08 2.5668 
1 11 1 1.65314e-08 2.5668 
1 12 0 inf 2.5668 
2 13 0 inf 2.5668 
1 14 1 1.16894e-08 2.5668 
1 15 1 2.02467e-08 2.5668 
1 16 0 inf 2.5668 
2 17 0 inf 2.5668 
1 18 1 2.61384e-08 2.5668 
1 19 1 1.16894e-08 2.5668 
2 20 0 inf 2.5668 
1 21 0 inf 2.5668 
2 22 1 2.02467e-08 2.5668 
1 23 1 2.33789e-08 2.5668 
2 24 0 inf 2.5668 
2 25 0 inf 2.5668 
1 26 1 2.33789e-08 2.5668 
2 27 1 2.02467e-08 2.5668 
1 28 0 inf 2.5668 
2 29 0 inf 2.5668 
1 30 1 2.02467e-08 2.5668 
1 31 1 2.02467e-08 2.5668 
1 32 0 inf 2.5668 
2 33 0 inf 2.5668 
1 34 1 2.02467e-08 2.5668 
2 35 1 1.65314e-08 2.5668 
2 36 0 inf 2.5668 
1 37 0 inf 2.5668 
2 38 1 1.16894e-08 2.5668 
2 39 1 0 2.5668 
1 40 0 inf 2.5668 
1 41 0 inf 2.5668 
1 42 1 2.61384e-08 2.5668 
1 43 1 1.16894e-08 2.5668 
2 44 0 inf 2.5668 
2 45 0 inf 2.5668 
1 46 1 2.02467e-08 2.5668 
2 47 1 2.61384e-08 2.5668 
2 48 0 inf 2.5668 
2 49 0 inf 2.5668 
2 50 1 2.61384e-08 2.5668 
2 51 1 2.02467e-08 2.5668 
2 52 0 inf 2.5668 
2 53 0 inf 2.5668 
1 54 1 1.65314e-08 2.5668 
1 55 1 1.16894e-08 2.5668 
1 56 0 inf 2.5668 
1 57 0 inf 2.5668 
2 58 1 2.02467e-08 2.5668 
2 59 1 2.33789e-08 2.5668 
2 60 0 inf 2.5668 
2 61 0 inf 2.5668 
1 62 1 2.86331e-08 2.5668 
1 63 1 1.16894e-08 2.5668 
2 64 0 inf 2.5668 
2 65 0 inf 2.5668 
2 66 1 2.61384e-08 2.5668 
1 67 1 1.16894e-08 2.5668 
2 68 0 inf 2.5668 
2 69 0 inf 2.5668 
1 70 1 1.16894e-08 2.5668 
1 71 1 0 2.5668 
1 72 0 inf 2.5668 
1 73 0 inf 2.5668 
1 74 1 2.02467e-08 2.5668 
2 75 1 1.16894e-08 2.5668 
1 76 0 inf 2.5668 
1 77 0 inf 2.5668 
2 78 1 1.16894e-08 2.5668 
2 79 1 0 2.5668 
1 80 0 inf 2.5668 
2 81 0 inf 2.5668 
2 82 1 0 2.5668 
1 83 1 2.02467e-08 2.5668 
2 84 0 inf 2.5668 
2 85 0 inf 2.5668 
1 86 1 1.16894e-08 2.5668 
2 87 1 1.16894e-08 2.5668 
2 88 0 inf 2.5668 
2 89 0 inf 2.5668 
2 90 1 2.02467e-08 2.5668 
2 91 1 0 2.5668 
2 92 0 inf 2.5668 
1 93 0 inf 2.5668 
1 94 1 1.16894e-08 2.5668 
1 95 1 2.33789e-08 2.5668 
2 96 0 inf 2.5668 
2 97 0 inf 2.5668 
2 98 1 2.02467e-08 2.5668 
1 99 1 2.02467e-08 2.5668 
2 100 0 inf 2.5668 
2 101 0 inf 2.5668 
2 102 1 1.16894e-08 2.5668 
1 103 1 2.86331e-08 2.5668 
2 104 0 inf 2.5668 
2 105 0 inf 2.5668 
2 106 1 1.16894e-08 2.5668 
2 107 1 2.02467e-08 2.5668 
2 108 0 inf 2.5668 
2 109 0 inf 2.5668 
1 110 1 0 2.5668 
1 111 1 2.61384e-08 2.5668 
2 112 0 inf 2.5668 
2 113 0 inf 2.5668 
1 114 1 1.65314e-08 2.5668 
2 115 1 2.02467e-08 2.5668 
1 116 0 inf 2.5668 
2 117 0 inf 2.5668 
1 118 1 1.16894e-08 2.5668 
2 119 1 2.33789e-08 2.5668 
1 120 0 inf 2.5668 
1 121 0 inf 2.5668 
2 122 1 2.33789e-08 2.5668 
2 123 1 0 2.5668 
2 124 0 inf 2.5668 
2 125 0 inf 2.5668 
1 126 1 2.02467e-08 2.5668 
2 127 1 1.16894e-08 2.5668 
2 128 0 inf 2.5668 
1 129 0 inf 2.5668 
1 130 1 2.02467e-08 2.5668 
1 131 1 2.02467e-08 2.5668 
2 132 0 inf 2.5668 
1 133 0 inf 2.5668 
1 134 1 2.61384e-08 2.5668 
2 135 1 1.16894e-08 2.5668 
2 136 0 inf 2.5668 
2 137 0 inf 2.5668 
2 138 1 2.33789e-08 2.5668 
1 139 1 0 2.5668 
1 140 0 inf 2.5668 
2 141 0 inf 2.5668 
2 142 1 2.02467e-08 2.5668 
1 143 1 1.65314e-08 2.5668 
1 144 0 inf 2.5668 
2 145 1 2.86331e-08 2.5668 
2 146 1 2.86331e-08 2.5668 
1 147 1 1.65314e-08 2.5668 
2 148 1 2.33789e-08 2.5668 
2 149 1 1.16894e-08 2.5668 
1 150 1 3.09273e-08 2.5668 
1 151 1 3.30627e-08 2.5668 
1 152 1 2.02467e-08 2.5668 
1 153 1 2.61384e-08 2.5668 
2 154 1 1.16894e-08 2.5668 
1 155 1 3.50683e-08 2.5668 
2 156 1 1.16894e-08 2.5668 
2 157 1 2.33789e-08 2.5668 
2 158 1 1.65314e-08 2.5668 
1 159 1 1.65314e-08 2.5668 
2 160 1 1.65314e-08 2.5668 
2 161 1 1.65314e-08 2.5668 
2 162 1 1.16894e-08 2.5668 
2 163 1 1.65314e-08 2.5668 
2 164 1 1.65314e-08 2.5668 
1 165 1 2.33789e-08 2.5668 
1 166 1 1.65314e-08 2.5668 
2 167 1 1.16894e-08 2.5668 
2 168 1 2.02467e-08 2.5668 
1 169 1 2.61384e-08 2.5668 
2 170 1 2.02467e-08 2.5668 
2 171 1 2.86331e-08 2.5668 
1 172 1 2.02467e-08 2.5668 
1 173 1 1.16894e-08 2.5668 
2 174 1 2.61384e-08 2.5668 
2 175 1 2.61384e-08 2.5668 
1 176 1 1.16894e-08 2.5668 
2 177 1 2.33789e-08 2.5668 
2 178 1 2.02467e-08 2.5668 
1 179 1 2.61384e-08 2.5668 
1 180 1 2.02467e-08 2.5668 
1 181 1 2.61384e-08 2.5668 
2 182 1 1.16894e-08 2.5668 
1 183 1 2.33789e-08 2.5668 
2 184 1 1.16894e-08 2.5668 
1 185 1 3.09273e-08 2.5668 
1 186 1 2.02467e-08 2.5668 
1 187 1 1.16894e-08 2.5668 
2 188 1 1.65314e-08 2.5668 
1 189 1 1.65314e-08 2.5668 
1 190 1 2.61384e-08 2.5668 
2 191 1 2.61384e-08 2.5668 
1 192 1 2.02467e-08 2.5668 
1 193 1 2.02467e-08 2.5668 
1 194 1 1.65314e-08 2.5668 
2 195 1 1.16894e-08 2.5668 
1 196 1 2.33789e-08 2.5668 
2 197 1 1.65314e-08 2.5668 
1 198 1 1.65314e-08 2.5668 
1 199 1 1.16894e-08 2.5668 
2 200 1 2.33789e-08 2.5668 
1 201 1 1.65314e-08 2.5668 
1 202 1 2.33789e-08 2.5668 
2 203 1 1.65314e-08 2.5668 
2 204 1 1.65314e-08 2.5668 
2 205 1 1.65314e-08 2.5668 
2 206 1 1.65314e-08 2.5668 
1 207 1 1.16894e-08 2.5668 
2 208 1 2.02467e-08 2.5668 
2 209 1 2.33789e-08 2.5668 
1 210 1 2.61384e-08 2.5668 
1 211 1 0 2.5668 
2 212 1 2.33789e-08 2.5668 
1 213 1 2.02467e-08 2.5668 
1 214 1 3.09273e-08 2.5668 
2 215 1 2.02467e-08 2.5668 
2 216 1 2.02467e-08 2.5668 
1 217 1 0 2.5668 
2 218 1 2.86331e-08 2.5668 
2 219 1 1.65314e-08 2.5668 
1 220 1 1.65314e-08 2.5668 
1 221 1 1.65314e-08 2.5668 
2 222 1 2.33789e-08 2.5668 
1 223 1 2.02467e-08 2.5668 
1 224 1 1.65314e-08 2.5668 
2 225 1 1.65314e-08 2.5668 
1 226 1 2.02467e-08 2.5668 
2 227 1 3.09273e-08 2.5668 
1 228 1 1.65314e-08 2.5668 
1 229 1 1.16894e-08 2.5668 
1 230 1 0 2.5668 
2 231 1 0 2.5668 
1 232 1 1.16894e-08 2.5668 
2 233 1 1.16894e-08 2.5668 
2 234 1 0 2.5668 
1 235 1 1.65314e-08 2.5668 
2 236 1 1.16894e-08 2.5668 
1 237 1 1.16894e-08 2.5668 
2 238 1 1.65314e-08 2.5668 
1 239 1 1.16894e-08 2.5668 
2 240 1 2.33789e-08 2.5668 
2 241 1 2.02467e-08 2.5668 
2 242 1 2.86331e-08 2.5668 
1 243 1 2.33789e-08 2.5668 
2 244 1 1.65314e-08 2.5668 
1 245 1 2.02467e-08 2.5668 
2 246 1 2.86331e-08 2.5668 
2 247 1 3.09273e-08 2.5668 
2 248 1 2.61384e-08 2.5668 
1 249 1 2.33789e-08 2.5668 
2 250 1 2.86331e-08 2.5668 
1 251 1 2.02467e-08 2.5668 
1 252 1 1.65314e-08 2.5668 
2 253 1 1.16894e-08 2.5668 
2 254 1 0 2.5668 
2 255 1 1.65314e-08 2.5668 
2 256 1 1.16894e-08 2.5668 
2 257 1 2.86331e-08 2.5668 
2 258 1 0 2.5668 
2 259 1 2.02467e-08 2.5668 
1 260 1 2.61384e-08 2.5668 
1 261 1 3.09273e-08 2.5668 
2 262 1 0 2.5668 
1 263 1 1.65314e-08 2.5668 
1 264 1 3.09273e-08 2.5668 
1 265 1 2.33789e-08 2.5668 
2 266 1 2.02467e-08 2.5668 
2 267 1 3.30627e-08 2.5668 
1 268 1 3.09273e-08 2.5668 
1 269 1 2.61384e-08 2.5668 
1 270 1 2.33789e-08 2.5668 
2 271 1 1.65314e-08 2.5668 
1 272 1 3.09273e-08 2.5668 
2 273 1 1.65314e-08 2.5668 
2 274 1 2.02467e-08 2.5668 
2 275 1 1.65314e-08 2.5668 
1 276 1 3.30627e-08 2.5668 
2 277 1 1.65314e-08 2.5668 
1 278 1 2.02467e-08 2.5668 
1 279 1 1.16894e-08 2.5668 
1 280 1 3.09273e-08 2.5668 
1 281 1 0 2.5668 
1 282 1 1.16894e-08 2.5668 
1 283 1 0 2.5668 
2 284 1 2.33789e-08 2.5668 
2 285 1 1.65314e-08 2.5668 
2 286 1 2.02467e-08 2.5668 
2 287 1 2.02467e-08 2.5668 
2 288 1 3.30627e-08 2.5668 
1 289 1 2.61384e-08 2.5668 
1 290 1 1.65314e-08 2.5668 
2 291 1 1.65314e-08 2.5668 
1 292 1 2.61384e-08 2.5668 
1 293 1 2.86331e-08 2.5668 
2 294 1 2.02467e-08 2.5668 
1 295 1 2.33789e-08 2.5668 
2 296 1 2.61384e-08 2.5668 
2 297 1 2.33789e-08 2.5668 
2 298 1 1.65314e-08 2.5668 
1 299 1 2.33789e-08 2.5668 
2 300 1 2.61384e-08 2.5668 
2 301 1 2.02467e-08 2.5668 
2 302 1 2.61384e-08 2.5668 
2 303 1 2.02467e-08 2.5668 
2 304 1 2.33789e-08 2.5668 
2 305 1 3.30627e-08 2.5668 
1 306 1 3.09273e-08 2.5668 
2 307 1 1.16894e-08 2.5668 
1 308 1 2.61384e-08 2.5668 
1 309 1 0 2.5668 
1 310 1 1.65314e-08 2.5668 
2 311 1 2.86331e-08 2.5668 
1 312 1 3.30627e-08 2.5668 
2 313 1 2.02467e-08 2.5668 
2 314 1 2.33789e-08 2.5668 
2 315 1 1.65314e-08 2.5668 
2 316 1 1.16894e-08 2.5668 
1 317 1 2.61384e-08 2.5668 
1 318 1 2.02467e-08 2.5668 
1 319 1 1.65314e-08 2.5668 
2 320 1 2.61384e-08 2.5668 
2 321 1 2.33789e-08 2.5668 
1 322 1 2.02467e-08 2.5668 
1 323 1 2.02467e-08 2.5668 
2 324 1 1.16894e-08 2.5668 
1 325 1 2.02467e-08 2.5668 
2 326 1 2.33789e-08 2.5668 
1 327 1 1.65314e-08 2.5668 
2 328 1 2.33789e-08 2.5668 
2 329 1 2.02467e-08 2.5668 
2 330 1 2.61384e-08 2.5668 
2 331 1 1.65314e-08 2.5668 
2 332 1 1.65314e-08 2.5668 
1 333 1 1.65314e-08 2.5668 
1 334 1 1.65314e-08 2.5668 
2 335 1 2.86331e-08 2.5668 
1 336 1 2.33789e-08 2.5668 
1 337 1 2.61384e-08 2.5668 
1 338 1 0 2.5668 
2 339 1 2.33789e-08 2.5668 
2 340 1 2.33789e-08 2.5668 
1 341 1 2.33789e-08 2.5668 
2 342 1 1.65314e-08 2.5668 
2 343 1 2.33789e-08 2.5668 
1 344 1 2.02467e-08 2.5668 
1 345 1 2.02467e-08 2.5668 
1 346 1 1.16894e-08 2.5668 
2 347 1 1.65314e-08 2.5668 
1 348 1 2.61384e-08 2.5668 
1 349 1 1.65314e-08 2.5668 
2 350 1 1.65314e-08 2.5668 
1 351 1 1.16894e-08 2.5668 
2 352 1 2.02467e-08 2.5668 
2 353 1 2.02467e-08 2.5668 
2 354 1 2.02467e-08 2.5668 
1 355 1 2.02467e-08 2.5668 
2 356 1 2.61384e-08 2.5668 
2 357 1 2.02467e-08 2.5668 
2 358 1 2.02467e-08 2.5668 
1 359 1 2.02467e-08 2.5668 
2 360 1 3.30627e-08 2.5668 
2 361 1 2.02467e-08 2.5668 
2 362 1 1.65314e-08 2.5668 
1 363 1 2.61384e-08 2.5668 
1 364 1 2.33789e-08 2.5668 
2 365 1 2.61384e-08 2.5668 
1 366 1 2.02467e-08 2.5668 
1 367 1 1.65314e-08 2.5668 
2 368 1 2.86331e-08 2.5668 
2 369 1 1.16894e-08 2.5668 
2 370 1 2.33789e-08 2.5668 
1 371 1 2.02467e-08 2.5668 
2 372 1 2.02467e-08 2.5668 
2 373 1 1.16894e-08 2.5668 
2 374 1 2.02467e-08 2.5668 
2 375 1 2.02467e-08 2.5668 
1 376 1 1.16894e-08 2.5668 
2 377 1 2.33789e-08 2.5668 
1 378 1 1.16894e-08 2.5668 
1 379 1 1.16894e-08 2.5668 
1 380 1 1.16894e-08 2.5668 
2 381 1 2.02467e-08 2.5668 
1 382 1 1.16894e-08 2.5668 
1 383 1 2.33789e-08 2.5668 
2 384 1 2.33789e-08 2.5668 
1 385 1 2.86331e-08 2.5668 
2 386 1 2.02467e-08 2.5668 
2 387 1 2.33789e-08 2.5668 
2 388 1 1.65314e-08 2.5668 
1 389 1 2.61384e-08 2.5668 
2 390 1 1.16894e-08 2.5668 
1 391 1 2.02467e-08 2.5668 
2 392 1 2.02467e-08 2.5668 
1 393 1 2.86331e-08 2.5668 
2 394 1 2.33789e-08 2.5668 
1 395 1 2.86331e-08 2.5668 
1 396 1 1.65314e-08 2.5668 
1 397 1 2.86331e-08 2.5668 
1 398 1 1.16894e-08 2.5668 
2 399 1 1.16894e-08 2.5668 
1 400 1 2.02467e-08 2.5668 
2 401 1 2.61384e-08 2.5668 
1 402 1 2.02467e-08 2.5668 
1 403 1 1.65314e-08 2.5668 
2 404 1 2.61384e-08 2.5668 
1 405 1 1.65314e-08 2.5668 
1 406 1 1.16894e-08 2.5668 
2 407 1 2.02467e-08 2.5668 
2 408 1 3.09273e-08 2.5668 
2 409 1 1.16894e-08 2.5668 
1 410 1 2.86331e-08 2.5668 
1 411 1 2.02467e-08 2.5668 
2 412 1 3.30627e-08 2.5668 
2 413 1 2.33789e-08 2.5668 
1 414 1 2.02467e-08 2.5668 
2 415 1 1.65314e-08 2.5668 
2 416 1 3.30627e-08 2.5668 
2 417 1 1.65314e-08 2.5668 
2 418 1 1.65314e-08 2.5668 
2 419 1 1.65314e-08 2.5668 
2 420 1 2.86331e-08 2.5668 
1 421 1 1.16894e-08 2.5668 
2 422 1 2.33789e-08 2.5668 
2 423 1 1.16894e-08 2.5668 
2 424 1 2.86331e-08 2.5668 
1 425 1 2.33789e-08 2.5668 
2 426 1 2.86331e-08 2.5668 
2 427 1 0 2.5668 
1 428 1 2.33789e-08 2.5668 
2 429 1 1.16894e-08 2.5668 
2 430 1 1.16894e-08 2.5668 
1 431 1 2.02467e-08 2.5668 
1 432 1 2.61384e-08 2.5668 
1 433 1 1.16894e-08 2.5668 
1 434 1 1.16894e-08 2.5668 
2 435 1 1.16894e-08 2.5668 
2 436 1 1.16894e-08 2.5668 
2 437 1 2.33789e-08 2.5668 
2 438 1 2.33789e-08 2.5668 
2 439 1 1.16894e-08 2.5668 
1 440 1 1.16894e-08 2.5668 
1 441 1 1.65314e-08 2.5668 
1 442 1 2.33789e-08 2.5668 
2 443 1 2.02467e-08 2.5668 
1 444 1 0 2.5668 
2 445 1 0 2.5668 
1 446 1 1.16894e-08 2.5668 
2 447 1 1.16894e-08 2.5668 
1 448 1 0 2.5668 
2 449 1 1.16894e-08 2.5668 
2 450 1 2.61384e-08 2.5668 
2 451 1 2.02467e-08 2.5668 
1 452 1 1.16894e-08 2.5668 
2 453 1 1.65314e-08 2.5668 
2 454 1 0 2.5668 
2 455 1 2.33789e-08 2.5668 
1 456 1 1.16894e-08 2.5668 
2 457 1 1.16894e-08 2.5668 
2 458 1 1.65314e-08 2.5668 
2 459 1 2.02467e-08 2.5668 
1 460 1 2.02467e-08 2.5668 
2 461 1 1.16894e-08 2.5668 
1 462 1 2.33789e-08 2.5668 
2 463 1 2.33789e-08 2.5668 
2 464 1 0 2.5668 
2 465 1 1.65314e-08 2.5668 
1 466 1 1.65314e-08 2.5668 
2 467 1 1.65314e-08 2.5668 
1 468 1 1.16894e-08 2.5668 
2 469 1 0 2.5668 
2 470 1 0 2.5668 
2 471 1 2.61384e-08 2.5668 
1 472 1 0 2.5668 
1 473 1 2.61384e-08 2.5668 
2 474 1 2.61384e-08 2.5668 
2 475 1 2.33789e-08 2.5668 
1 476 1 1.16894e-08 2.5668 
2 477 1 1.16894e-08 2.5668 
2 478 1 1.65314e-08 2.5668 
2 479 1 2.02467e-08 2.5668 
1 480 1 1.16894e-08 2.5668 
2 481 1 1.16894e-08 2.5668 
1 482 1 1.65314e-08 2.5668 
1 483 1 1.16894e-08 2.5668 
1 484 1 1.16894e-08 2.5668 
1 485 1 1.16894e-08 2.5668 
1 486 1 1.16894e-08 2.5668 
1 487 1 0 2.5668 
2 488 1 1.16894e-08 2.5668 
2 489 1 1.16894e-08 2.5668 
1 490 1 0 2.5668 
2 491 1 2.02467e-08 2.5668 
1 492 1 1.16894e-08 2.5668 
1 493 1 1.16894e-08 2.5668 
1 494 1 2.02467e-08 2.5668 
2 495 1 1.16894e-08 2.5668 
2 496 1 0 2.5668 
2 497 1 1.16894e-08 2.5668 
2 498 1 2.61384e-08 2.5668 
1 499 1 1.16894e-08 2.5668 
1 500 1 0 2.5668 
2 501 1 1.16894e-08 2.5668 
2 502 1 0 2.5668 
1 503 1 1.16894e-08 2.5668 
2 504 1 0 2.5668 
2 505 1 1.16894e-08 2.5668 
1 506 1 0 2.5668 
1 507 1 1.65314e-08 2.5668 
1 508 1 2.33789e-08 2.5668 
2 509 1 1.65314e-08 2.5668 
2 510 1 1.65314e-08 2.5668 
2 511 1 2.02467e-08 2.5668 
1 512 1 1.16894e-08 2.5668 
1 513 1 1.16894e-08 2.5668 
1 514 1 1.16894e-08 2.5668 
1 515 1 2.02467e-08 2.5668 
1 516 1 0 2.5668 
1 517 1 1.16894e-08 2.5668 
1 518 1 1.16894e-08 2.5668 
1 519 1 1.16894e-08 2.5668 
2 520 1 1.16894e-08 2.5668 
1 521 1 2.02467e-08 2.5668 
2 522 1 2.33789e-08 2.5668 
1 523 1 1.16894e-08 2.5668 
1 524 1 1.16894e-08 2.5668 
2 525 1 1.16894e-08 2.5668 
1 526 1 1.16894e-08 2.5668 
2 527 1 2.33789e-08 2.5668 
1 528 1 0 2.5668 
2 529 1 2.33789e-08 2.5668 
2 530 1 0 2.5668 
1 531 1 1.65314e-08 2.5668 
1 532 1 1.16894e-08 2.5668 
2 533 1 2.33789e-08 2.5668 
2 534 1 1.16894e-08 2.5668 
1 535 1 1.65314e-08 2.5668 
2 536 1 1.65314e-08 2.5668 
1 537 1 2.33789e-08 2.5668 
1 538 1 1.16894e-08 2.5668 
2 539 1 2.02467e-08 2.5668 
1 540 1 1.16894e-08 2.5668 
1 541 1 0 2.5668 
1 542 1 1.16894e-08 2.5668 
2 543 1 2.86331e-08 2.5668 
1 544 1 1.16894e-08 2.5668 
2 545 1 2.61384e-08 2.5668 
1 546 1 2.02467e-08 2.5668 
1 547 1 1.65314e-08 2.5668 
2 548 1 1.16894e-08 2.5668 
1 549 1 2.61384e-08 2.5668 
1 550 1 1.16894e-08 2.5668 
2 551 1 2.61384e-08 2.5668 
1 552 1 1.16894e-08 2.5668 
2 553 1 1.16894e-08 2.5668 
2 554 1 2.61384e-08 2.5668 
1 555 1 1.16894e-08 2.5668 
2 556 1 2.86331e-08 2.5668 
2 557 1 1.16894e-08 2.5668 
1 558 1 2.33789e-08 2.5668 
2 559 1 0 2.5668 
2 560 1 2.02467e-08 2.5668 
1 561 1 0 2.5668 
2 562 1 2.61384e-08 2.5668 
1 563 1 0 2.5668 
2 564 1 2.61384e-08 2.5668 
2 565 1 1.65314e-08 2.5668 
2 566 1 2.61384e-08 2.5668 
2 567 1 1.16894e-08 2.5668 
1 568 1 2.61384e-08 2.5668 
2 569 1 2.02467e-08 2.5668 
1 570 1 2.61384e-08 2.5668 
2 571 1 1.16894e-08 2.5668 
2 572 1 2.33789e-08 2.5668 
1 573 1 1.16894e-08 2.5668 
1 574 1 1.65314e-08 2.5668 
1 575 1 0 2.5668 
1 576 1 2.61384e-08 2.5668 
1 577 1 2.33789e-08 2.5668 
1 578 1 2.02467e-08 2.5668 
2 579 1 2.33789e-08 2.5668 
2 580 1 1.65314e-08 2.5668 
2 581 1 2.02467e-08 2.5668 
1 582 1 2.02467e-08 2.5668 
1 583 1 2.33789e-08 2.5668 
2 584 1 2.02467e-08 2.5668 
2 585 1 1.65314e-08 2.5668 
1 586 1 2.02467e-08 2.5668 
1 587 1 2.86331e-08 2.5668 
1 588 1 2.33789e-08 2.5668 
2 589 1 1.65314e-08 2.5668 
2 590 1 2.02467e-08 2.5668 
1 591 1 1.16894e-08 2.5668 
1 592 1 2.02467e-08 2.5668 
1 593 1 2.86331e-08 2.5668 
2 594 1 3.30627e-08 2.5668 
2 595 1 2.02467e-08 2.5668 
2 596 1 2.61384e-08 2.5668 
1 597 1 1.65314e-08 2.5668 
2 598 1 2.02467e-08 2.5668 
1 599 1 2.61384e-08 2.5668 
1 600 1 2.61384e-08 2.5668 
2 601 1 1.16894e-08 2.5668 
2 602 1 2.02467e-08 2.5668 
1 603 1 2.02467e-08 2.5668 
2 604 1 2.02467e-08 2.5668 
1 605 1 1.65314e-08 2.5668 
2 606 1 1.65314e-08 2.5668 
1 607 1 2.61384e-08 2.5668 
1 608 1 2.02467e-08 2.5668 
1 609 1 2.02467e-08 2.5668 
1 610 1 1.16894e-08 2.5668 
2 611 1 2.02467e-08 2.5668 
1 612 1 2.33789e-08 2.5668 
2 613 1 2.02467e-08 2.5668 
2 614 1 2.02467e-08 2.5668 
2 615 1 1.65314e-08 2.5668 
2 616 1 2.02467e-08 2.5668 
1 617 1 2.33789e-08 2.5668 
2 618 1 2.61384e-08 2.5668 
1 619 1 1.65314e-08 2.5668 
2 620 1 2.02467e-08 2.5668 
1 621 1 1.65314e-08 2.5668 
1 622 1 1.65314e-08 2.5668 
1 623 1 2.61384e-08 2.5668 
2 624 1 2.61384e-08 2.5668 
1 625 1 2.02467e-08 2.5668 
1 626 1 2.33789e-08 2.5668 
1 627 1 2.02467e-08 2.5668 
1 628 1 2.33789e-08 2.5668 
2 629 1 1.65314e-08 2.5668 
2 630 1 2.86331e-08 2.5668 
1 631 1 1.65314e-08 2.5668 
2 632 1 2.33789e-08 2.5668 
2 633 1 2.02467e-08 2.5668 
1 634 1 2.02467e-08 2.5668 
1 635 1 2.33789e-08 2.5668 
2 636 1 2.33789e-08 2.5668 
1 637 1 1.16894e-08 2.5668 
1 638 1 1.16894e-08 2.5668 
1 639 1 1.16894e-08 2.5668 
1 640 1 1.65314e-08 2.5668 
1 641 1 2.61384e-08 2.5668 
1 642 1 2.02467e-08 2.5668 
2 643 1 1.16894e-08 2.5668 
1 644 1 2.61384e-08 2.5668 
2 645 1 2.02467e-08 2.5668 
2 646 1 1.65314e-08 2.5668 
1 647 1 2.61384e-08 2.5668 
1 648 1 2.61384e-08 2.5668 
2 649 1 1.16894e-08 2.5668 
2 650 1 1.16894e-08 2.5668 
1 651 1 2.61384e-08 2.5668 
1 652 1 2.02467e-08 2.5668 
2 653 1 1.16894e-08 2.5668 
2 654 1 2.02467e-08 2.5668 
2 655 1 2.02467e-08 2.5668 
2 656 1 2.02467e-08 2.5668 
1 657 1 2.02467e-08 2.5668 
1 658 1 1.16894e-08 2.5668 
2 659 1 1.16894e-08 2.5668 
1 660 1 1.65314e-08 2.5668 
1 661 1 1.16894e-08 2.5668 
2 662 1 1.16894e-08 2.5668 
1 663 1 2.02467e-08 2.5668 
1 664 1 2.02467e-08 2.5668 
2 665 1 2.33789e-08 2.5668 
1 666 1 2.33789e-08 2.5668 
2 667 1 1.16894e-08 2.5668 
1 668 1 1.65314e-08 2.5668 
2 669 1 2.86331e-08 2.5668 
2 670 1 2.02467e-08 2.5668 
1 671 1 2.61384e-08 2.5668 
2 672 1 2.02467e-08 2.5668 
2 673 1 3.50683e-08 2.5668 
2 674 1 1.65314e-08 2.5668 
1 675 1 3.09273e-08 2.5668 
1 676 1 2.02467e-08 2.5668 
2 677 1 3.09273e-08 2.5668 
2 678 1 1.65314e-08 2.5668 
2 679 1 2.61384e-08 2.5668 
2 680 1 2.02467e-08 2.5668 
2 681 1 1.16894e-08 2.5668 
2 682 1 2.02467e-08 2.5668 
1 683 1 2.86331e-08 2.5668 
1 684 1 1.65314e-08 2.5668 
2 685 1 2.02467e-08 2.5668 
1 686 1 2.02467e-08 2.5668 
2 687 1 2.33789e-08 2.5668 
1 688 1 2.02467e-08 2.5668 
1 689 1 1.65314e-08 2.5668 
1 690 1 3.09273e-08 2.5668 
2 691 1 2.33789e-08 2.5668 
2 692 1 2.02467e-08 2.5668 
2 693 1 2.33789e-08 2.5668 
1 694 1 2.02467e-08 2.5668 
1 695 1 1.65314e-08 2.5668 
2 696 1 3.30627e-08 2.5668 
2 697 1 1.65314e-08 2.5668 
1 698 1 2.61384e-08 2.5668 
1 699 1 2.61384e-08 2.5668 
1 700 1 3.09273e-08 2.5668 
1 701 1 1.65314e-08 2.5668 
1 702 1 0 2.5668 
2 703 1 2.02467e-08 2.5668 
2 704 1 3.09273e-08 2.5668 
1 705 1 2.02467e-08 2.5668 
2 706 1 2.33789e-08 2.5668 
1 707 1 1.16894e-08 2.5668 
2 708 1 3.09273e-08 2.5668 
1 709 1 1.16894e-08 2.5668 
2 710 1 0 2.5668 
1 711 1 1.16894e-08 2.5668 
1 712 1 2.02467e-08 2.5668 
2 713 1 2.61384e-08 2.5668 
1 714 1 3.30627e-08 2.5668 
2 715 1 2.02467e-08 2.5668 
2 716 1 2.61384e-08 2.5668 
1 717 1 1.16894e-08 2.5668 
1 718 1 2.33789e-08 2.5668 
2 719 1 2.33789e-08 2.5668 
2 720 1 1.65314e-08 2.5668 
1 721 1 1.65314e-08 2.5668 
1 722 0 inf 2.5668 
2 723 0 inf 2.83565 
2 724 1 2.33789e-08 2.5668 
1 725 1 1.65314e-08 2.5668 
1 726 0 inf 2.74438 
1 727 0 inf 2.74438 
1 728 1 2.02467e-08 2.5668 
2 729 1 1.16894e-08 2.5668 
1 730 0 inf 2.5668 
2 731 0 inf 2.5668 
2 732 1 1.65314e-08 2.5668 
2 733 1 0 2.5668 
2 734 0 inf 2.5668 
2 735 0 inf 2.5668 
1 736 1 0 2.5668 
1 737 1 2.02467e-08 2.5668 
2 738 0 inf 3.07837 
2 739 0 inf 2.89919 
1 740 1 1.16894e-08 2.5668 
2 741 1 1.16894e-08 2.5668 
2 742 0 inf 2.5668 
2 743 0 inf 2.5668 
2 744 1 2.33789e-08 2.5668 
1 745 1 1.65314e-08 2.5668 
2 746 0 inf 3.24457 
1 747 0 inf 2.91474 
1 748 1 1.65314e-08 2.5668 
2 749 1 1.65314e-08 2.5668 
1 750 0 inf 2.5668 
1 751 0 inf 2.5668 
2 752 1 1.65314e-08 2.5668 
2 753 1 1.16894e-08 2.5668 
2 754 0 inf 3.07054 
1 755 0 inf 3.07054 
2 756 1 2.02467e-08 2.5668 
2 757 1 1.16894e-08 2.5668 
1 758 0 inf 3.28726 
2 759 0 inf 3.28726 
2 760 1 1.16894e-08 2.5668 
1 761 1 2.61384e-08 2.5668 
2 762 0 inf 2.5668 
2 763 0 inf 2.98213 
1 764 1 1.16894e-08 2.5668 
2 765 1 0 2.5668 
1 766 0 inf 3.06931 
2 767 0 inf 2.85839 
1 768 1 0 2.5668 
1 769 1 1.16894e-08 2.5668 
2 770 0 inf 3.13365 
2 771 0 inf 2.94221 
1 772 1 2.61384e-08 2.5668 
1 773 1 1.16894e-08 2.5668 
1 774 0 inf 3.02387 
2 775 0 inf 3.02387 
2 776 1 2.02467e-08 2.5668 
2 777 1 1.16894e-08 2.5668 
1 778 0 inf 3.02313 
1 779 0 inf 3.14292 
2 780 1 1.65314e-08 2.5668 
1 781 1 1.16894e-08 2.5668 
1 782 0 inf 2.5668 
2 783 0 inf 2.5668 
2 784 1 1.16894e-08 2.5668 
1 785 1 2.86331e-08 2.5668 
2 786 0 inf 3.11524 
2 787 0 inf 3.00031 
1 788 1 2.33789e-08 2.5668 
2 789 1 0 2.5668 
2 790 0 inf 3.03747 
1 791 0 inf 3.22555 
1 792 1 2.02467e-08 2.5668 
2 793 1 1.65314e-08 2.5668 
2 794 0 inf 3.18791 
2 795 0 inf 3.18791 
2 796 1 2.02467e-08 2.5668 
1 797 1 2.02467e-08 2.5668 
1 798 0 inf 3.08208 
2 799 0 inf 3.08208 
2 800 1 2.02467e-08 2.5668 
1 801 1 1.16894e-08 2.5668 
1 802 0 inf 2.5668 
2 803 0 inf 2.5668 
2 804 1 2.33789e-08 2.5668 
2 805 1 0 2.5668 
2 806 0 inf 2.5668 
1 807 0 inf 3.09484 
2 808 1 0 2.5668 
2 809 1 0 2.5668 
2 810 0 inf 3.10344 
1 811 0 inf 3.10344 
1 812 1 1.16894e-08 2.5668 
1 813 1 1.16894e-08 2.5668 
1 814 0 inf 2.5668 
2 815 0 inf 3.03991 
2 816 1 2.33789e-08 2.5668 
2 817 1 1.16894e-08 2.5668 
1 818 0 inf 3.0081 
1 819 0 inf 2.96989 
1 820 1 0 2.5668 
1 821 1 2.33789e-08 2.5668 
2 822 0 inf 2.80126 
2 823 0 inf 2.96759 
1 824 1 1.16894e-08 2.5668 
2 825 1 2.02467e-08 2.5668 
1 826 0 inf 2.5668 
1 827 0 inf 2.91676 
1 828 1 1.65314e-08 2.5668 
1 829 1 1.65314e-08 2.5668 
2 830 0 inf 2.5668 
1 831 0 inf 2.90434 
1 832 1 0 2.5668 
2 833 1 2.33789e-08 2.5668 
2 834 0 inf 2.5668 
2 835 0 inf 2.92186 
2 836 1 1.16894e-08 2.5668 
2 837 1 0 2.5668 
2 838 0 inf 2.95487 
1 839 0 inf 2.9885 
2 840 1 2.61384e-08 2.5668 
2 841 1 1.65314e-08 2.5668 
2 842 0 inf 2.85262 
2 843 0 inf 2.83856 
1 844 1 2.02467e-08 2.5668 
1 845 1 1.16894e-08 2.5668 
1 846 0 inf 2.88034 
2 847 0 inf 2.88034 
2 848 1 2.33789e-08 2.5668 
1 849 1 1.16894e-08 2.5668 
1 850 0 inf 2.5668 
2 851 0 inf 2.5668 
1 852 1 1.16894e-08 2.5668 
1 853 1 2.02467e-08 2.5668 
2 854 0 inf 2.5668 
1 855 0 inf 3.03966 
1 856 1 2.33789e-08 2.5668 
1 857 1 0 2.5668 
2 858 0 inf 2.9904 
2 859 0 inf 2.9904 
1 860 1 0 2.5668 
1 861 1 2.02467e-08 2.5668 
1 862 0 inf 2.5668 
1 863 0 inf 3.15296 
1 864 1 2.02467e-08 2.5668 
2 865 0 inf 3.24053 
2 866 0 inf 2.61401 
2 867 0 inf 2.61401 
2 868 0 inf 2.61401 
2 869 0 inf 2.61401 
2 870 0 inf 2.61401 
2 871 0 inf 2.61401 
2 872 0 inf 2.61401 
2 873 0 inf 2.61401 
2 874 0 inf 2.61401 
2 875 0 inf 2.61401 
2 876 0 inf 2.61401 
2 877 0 inf 2.80988 
2 878 0 inf 2.80988 
2 879 0 inf 2.80988 
2 880 0 inf 3.12381 
2 881 0 inf 3.12381 
2 882 0 inf 3.12381 
2 883 0 inf 3.12381 
2 884 0 inf 3.12381 
2 885 0 inf 3.12381 
2 886 0 inf 3.12381 
2 887 0 inf 2.35367 
2 888 0 inf 2.35367 
2 889 0 inf 2.77126 
2 890 0 inf 2.77126 
2 891 0 inf 2.77126 
2 892 0 inf 2.77126 
2 893 0 inf 2.77126 
2 894 0 inf 2.77126 
2 895 0 inf 2.77126 
2 896 0 inf 2.71803 
2 897 0 inf 2.69678 
2 898 0 inf 2.69678 
2 899 0 inf 2.69678 
2 900 0 inf 2.69678 
2 901 0 inf 2.69678 
2 902 0 inf 2.69678 
2 903 0 inf 2.79148 
2 904 0 inf 2.79148 
2 905 0 inf 2.79148 
2 906 0 inf 2.79148 
2 907 0 inf 2.4695 
2 908 0 inf 2.7939 
2 909 0 inf 2.86037 
2 910 0 inf 2.86037 
2 911 0 inf 3.45278 
2 912 0 inf 3.45278 
2 913 0 inf 3.45278 
2 914 0 inf 3.45278 
2 915 0 inf 3.45278 
2 916 0 inf 2.68224 
2 917 0 inf 2.68224 
2 918 0 inf 2.68224 
2 919 0 inf 2.68224 
2 920 0 inf 2.68224 
2 921 0 inf 2.68224 
2 922 0 inf 2.68224 
2 923 0 inf 2.68224 
2 924 0 inf 2.68224 
2 925 0 inf 2.68224 
2 926 0 inf 2.68224 
2 927 0 inf 2.68224 
2 928 0 inf 2.68224 
2 929 0 inf 2.68224 
2 930 0 inf 2.68224 
2 931 0 inf 2.68224 
2 932 0 inf 2.68224 
2 933 0 inf 2.68224 
2 934 0 inf 2.68224 
2 935 0 inf 2.68224 
2 936 0 inf 2.54368 
2 937 0 inf 2.54368 
2 938 0 inf 2.54368 
2 939 0 inf 2.54368 
2 940 0 inf 2.54368 
2 941 0 inf 2.54368 
2 942 0 inf 2.54368 
2 943 0 inf 2.54368 
2 944 0 inf 2.63872 
2 945 0 inf 2.63872 
2 946 0 inf 2.63872 
2 947 0 inf 2.63872 
2 948 0 inf 2.63872 
2 949 0 inf 2.63872 
2 950 0 inf 2.53924 
2 951 0 inf 2.53924 
2 952 0 inf 2.53924 
2 953 0 inf 2.53924 
2 954 0 inf 2.53924 
2 955 0 inf 2.53924 
2 956 0 inf 2.53924 
2 957 0 inf 2.53924 
2 958 0 inf 2.53924 
2 959 0 inf 2.53924 
2 960 0 inf 2.76841 
2 961 0 inf 2.76841 
2 962 0 inf 2.76841 
2 963 0 inf 2.76841 
2 964 0 inf 2.76841 
2 965 0 inf 2.60291 
2 966 0 inf 2.60291 
2 967 0 inf 2.60291 
2 968 0 inf 2.60291 
2 969 0 inf 2.60291 
2 970 0 inf 2.86365 
2 971 0 inf 2.86365 
2 972 0 inf 2.86365 
2 973 0 inf 2.86365 
2 974 0 inf 2.86365 
2 975 0 inf 2.86365 
2 976 0 inf 2.7327 
2 977 0 inf 2.7327 
2 978 0 inf 2.7327 
2 979 0 inf 2.7327 
2 980 0 inf 2.7327 
2 981 0 inf 2.61512 
2 982 0 inf 2.61512 
2 983 0 inf 2.61512 
2 984 0 inf 2.61512 
2 985 0 inf 2.61512 
2 986 0 inf 2.61512 
2 987 0 inf 2.61512 
2 988 0 inf 2.61512 
2 989 0 inf 2.61659 
2 990 0 inf 2.61659 
2 991 0 inf 2.61659 
2 992 0 inf 2.61659 
2 993 0 inf 2.61659 
2 994 0 inf 2.61659 
2 995 0 inf 2.61659 
2 996 0 inf 2.61659 
2 997 0 inf 2.61659 
2 998 0 inf 2.61659 
2 999 0 inf 2.61659 
2 1000 0 inf 2.61659 
2 1001 0 inf 2.61659 
2 1002 0 inf 2.61659 
2 1003 0 inf 2.61659 
2 1004 0 inf 2.61659 
2 1005 0 inf 2.61659 
2 1006 0 inf 2.61659 
2 1007 0 inf 2.61659 
2 1008 0 inf 2.74853 
2 1009 0 inf 2.74853 
2 1010 0 inf 2.74853 
2 1011 0 inf 2.74853 
2 1012 0 inf 2.74853 
2 1013 0 inf 2.74853 
2 1014 0 inf 2.74853 
2 1015 0 inf 2.74853 
2 1016 0 inf 2.74853 
2 1017 0 inf 2.74853 
2 1018 0 inf 2.74853 
2 1019 0 inf 2.74853 
2 1020 0 inf 2.74853 
2 1021 0 inf 2.74853 
2 1022 0 inf 2.74853 
2 1023 0 inf 2.74853 
2 1024 0 inf 2.74853 
2 1025 0 inf 2.84799 
2 1026 0 inf 2.84799 
2 1027 0 inf 2.84799 
2 1028 0 inf 2.84799 
2 1029 0 inf 2.84799 
2 1030 0 inf 2.84799 
2 1031 0 inf 2.84799 
2 1032 0 inf 2.71518 
2 1033 0 inf 3.37923 
2 1034 0 inf 2.6211 
2 1035 0 inf 2.6211 
2 1036 0 inf 2.6211 
2 1037 0 inf 2.6211 
2 1038 0 inf 2.6211 
2 1039 0 inf 2.75808 
2 1040 0 inf 2.75808 
2 1041 0 inf 2.75808 
2 1042 0 inf 2.75808 
2 1043 0 inf 2.75808 
2 1044 0 inf 2.75808 
2 1045 0 inf 2.75808 
2 1046 0 inf 2.86669 
2 1047 0 inf 2.86669 
2 1048 0 inf 2.86669 
2 1049 0 inf 2.86669 
2 1050 0 inf 2.86669 
2 1051 0 inf 2.84677 
2 1052 0 inf 2.84677 
2 1053 0 inf 2.84677 
2 1054 0 inf 2.84677 
2 1055 0 inf 2.84677 
2 1056 0 inf 2.84677 
2 1057 0 inf 3.33855 
2 1058 0 inf 3.33855 
2 1059 0 inf 3.33855 
2 1060 0 inf 3.33855 
2 1061 0 inf 3.33855 
2 1062 0 inf 3.33855 
2 1063 0 inf 3.33855 
2 1064 0 inf 3.33855 
2 1065 0 inf 3.33855 
2 1066 0 inf 3.33855 
2 1067 0 inf 3.33855 
2 1068 0 inf 3.33855 
2 1069 0 inf 3.33855 
2 1070 0 inf 3.33855 
2 1071 0 inf 3.33855 
2 1072 0 inf 3.33855 
2 1073 0 inf 3.33855 
2 1074 0 inf 3.33855 
2 1075 0 inf 3.33855 
2 1076 0 inf 3.33855 
2 1077 0 inf 2.87316 
2 1078 0 inf 2.87316 
2 1079 0 inf 2.87316 
2 1080 0 inf 2.87316 
2 1081 0 inf 2.87316 
2 1082 0 inf 2.87316 
2 1083 0 inf 2.87316 
2 1084 0 inf 2.87316 
2 1085 0 inf 2.87316 
2 1086 0 inf 2.87316 
2 1087 0 inf 2.57259 
2 1088 0 inf 2.57259 
2 1089 0 inf 2.87323 
2 1090 0 inf 2.87323 
2 1091 0 inf 2.87323 
2 1092 0 inf 2.87323 
2 1093 0 inf 2.87323 
2 1094 0 inf 2.87323 
2 1095 0 inf 2.87323 
2 1096 0 inf 2.87323 
2 1097 0 inf 2.87323 
2 1098 0 inf 2.87323 
2 1099 0 inf 2.87323 
2 1100 0 inf 2.73365 
2 1101 0 inf 2.38758 
2 1102 0 inf 2.38758 
2 1103 0 inf 2.38758 
2 1104 0 inf 2.38758 
2 1105 0 inf 2.38758 
2 1106 0 inf 2.38758 
2 1107 0 inf 2.38758 
2 1108 0 inf 2.98058 
2 1109 0 inf 2.98058 
2 1110 0 inf 2.98058 
2 1111 0 inf 2.98058 
2 1112 0 inf 2.98058 
2 1113 0 inf 2.98058 
2 1114 0 inf 2.98058 
2 1115 0 inf 2.98058 
2 1116 0 inf 2.98058 
2 1117 0 inf 2.98058 
2 1118 0 inf 2.98058 
2 1119 0 inf 2.98058 
2 1120 0 inf 2.98058 
2 1121 0 inf 2.98058 
2 1122 0 inf 2.98058 
2 1123 0 inf 2.98058 
2 1124 0 inf 2.98058 
2 1125 0 inf 2.98058 
2 1126 0 inf 2.98058 
2 1127 0 inf 2.98058 
2 1128 0 inf 2.98058 
2 1129 0 inf 2.98058 
2 1130 0 inf 2.98058 
2 1131 0 inf 2.55302 
2 1132 0 inf 2.55302 
2 1133 0 inf 2.55302 
2 1134 0 inf 2.55302 
2 1135 0 inf 2.55302 
2 1136 0 inf 2.55302 
2 1137 0 inf 2.55302 
2 1138 0 inf 2.55302 
2 1139 0 inf 2.55302 
2 1140 0 inf 2.55302 
2 1141 0 inf 2.55302 
2 1142 0 inf 2.55302 
2 1143 0 inf 2.55302 
2 1144 0 inf 2.55302 
2 1145 0 inf 2.80834 
2 1146 0 inf 2.80834 
2 1147 0 inf 2.80834 
2 1148 0 inf 2.80834 
2 1149 0 inf 2.80834 
2 1150 0 inf 2.80834 
2 1151 0 inf 2.80834 
2 1152 0 inf 2.80834 
2 1153 0 inf 2.80834 
2 1154 0 inf 2.80834 
2 1155 0 inf 2.80834 
2 1156 0 inf 2.80834 
2 1157 0 inf 2.80834 
2 1158 0 inf 2.71029 
2 1159 0 inf 2.71029 
2 1160 0 inf 2.71029 
2 1161 0 inf 2.71029 
2 1162 0 inf 2.71029 
2 1163 0 inf 2.71029 
2 1164 0 inf 2.71029 
2 1165 0 inf 2.71029 
2 1166 0 inf 2.71029 
2 1167 0 inf 2.61524 
2 1168 0 inf 2.61524 
2 1169 0 inf 2.61524 
2 1170 0 inf 2.77986 
2 1171 0 inf 2.77986 
2 1172 0 inf 2.77986 
2 1173 0 inf 2.77986 
2 1174 0 inf 2.77986 
2 1175 0 inf 2.77986 
2 1176 0 inf 2.77986 
2 1177 0 inf 2.77986 
2 1178 0 inf 2.77986 
2 1179 0 inf 2.77986 
2 1180 0 inf 2.77986 
2 1181 0 inf 2.77986 
2 1182 0 inf 2.77986 
2 1183 0 inf 2.59731 
2 1184 0 inf 2.59731 
2 1185 0 inf 2.59731 
2 1186 0 inf 2.59731 
2 1187 0 inf 2.59731 
2 1188 0 inf 2.59731 
2 1189 0 inf 2.59731 
2 1190 0 inf 3.06354 
2 1191 0 inf 3.06354 
2 1192 0 inf 2.67793 
2 1193 0 inf 2.67793 
2 1194 0 inf 2.67793 
2 1195 0 inf 2.67793 
2 1196 0 inf 2.67793 
2 1197 0 inf 2.67793 
2 1198 0 inf 2.67793 
2 1199 0 inf 2.67793 
2 1200 0 inf 2.67793 
2 1201 0 inf 2.67793 