custom atom datafile for lammps scripts 

864 atoms
2 atom types
0.0 12 xlo xhi
0.0 12 ylo yhi
0.0 12 zlo zhi

Atoms

1 2 0.0 0.0 0.0
2 1 1.0 1.0 0.0
3 1 1.0 0.0 1.0
4 1 0.0 1.0 1.0
5 2 0.0 0.0 2.0
6 1 1.0 1.0 2.0
7 1 1.0 0.0 3.0
8 1 0.0 1.0 3.0
9 2 0.0 0.0 4.0
10 1 1.0 1.0 4.0
11 1 1.0 0.0 5.0
12 1 0.0 1.0 5.0
13 1 0.0 0.0 6.0
14 2 1.0 1.0 6.0
15 1 1.0 0.0 7.0
16 1 0.0 1.0 7.0
17 2 0.0 0.0 8.0
18 1 1.0 1.0 8.0
19 1 1.0 0.0 9.0
20 2 0.0 1.0 9.0
21 1 0.0 0.0 10.0
22 1 1.0 1.0 10.0
23 1 1.0 0.0 11.0
24 2 0.0 1.0 11.0
25 1 0.0 2.0 0.0
26 2 1.0 3.0 0.0
27 1 1.0 2.0 1.0
28 1 0.0 3.0 1.0
29 1 0.0 2.0 2.0
30 1 1.0 3.0 2.0
31 2 1.0 2.0 3.0
32 2 0.0 3.0 3.0
33 1 0.0 2.0 4.0
34 1 1.0 3.0 4.0
35 1 1.0 2.0 5.0
36 1 0.0 3.0 5.0
37 1 0.0 2.0 6.0
38 1 1.0 3.0 6.0
39 2 1.0 2.0 7.0
40 1 0.0 3.0 7.0
41 1 0.0 2.0 8.0
42 2 1.0 3.0 8.0
43 1 1.0 2.0 9.0
44 1 0.0 3.0 9.0
45 1 0.0 2.0 10.0
46 1 1.0 3.0 10.0
47 1 1.0 2.0 11.0
48 1 0.0 3.0 11.0
49 1 0.0 4.0 0.0
50 1 1.0 5.0 0.0
51 1 1.0 4.0 1.0
52 1 0.0 5.0 1.0
53 1 0.0 4.0 2.0
54 1 1.0 5.0 2.0
55 1 1.0 4.0 3.0
56 1 0.0 5.0 3.0
57 2 0.0 4.0 4.0
58 2 1.0 5.0 4.0
59 1 1.0 4.0 5.0
60 1 0.0 5.0 5.0
61 1 0.0 4.0 6.0
62 2 1.0 5.0 6.0
63 1 1.0 4.0 7.0
64 2 0.0 5.0 7.0
65 1 0.0 4.0 8.0
66 2 1.0 5.0 8.0
67 2 1.0 4.0 9.0
68 1 0.0 5.0 9.0
69 1 0.0 4.0 10.0
70 1 1.0 5.0 10.0
71 2 1.0 4.0 11.0
72 1 0.0 5.0 11.0
73 1 0.0 6.0 0.0
74 1 1.0 7.0 0.0
75 2 1.0 6.0 1.0
76 2 0.0 7.0 1.0
77 1 0.0 6.0 2.0
78 1 1.0 7.0 2.0
79 1 1.0 6.0 3.0
80 1 0.0 7.0 3.0
81 1 0.0 6.0 4.0
82 2 1.0 7.0 4.0
83 2 1.0 6.0 5.0
84 1 0.0 7.0 5.0
85 1 0.0 6.0 6.0
86 1 1.0 7.0 6.0
87 1 1.0 6.0 7.0
88 1 0.0 7.0 7.0
89 1 0.0 6.0 8.0
90 1 1.0 7.0 8.0
91 1 1.0 6.0 9.0
92 1 0.0 7.0 9.0
93 1 0.0 6.0 10.0
94 2 1.0 7.0 10.0
95 1 1.0 6.0 11.0
96 1 0.0 7.0 11.0
97 1 0.0 8.0 0.0
98 1 1.0 9.0 0.0
99 1 1.0 8.0 1.0
100 1 0.0 9.0 1.0
101 2 0.0 8.0 2.0
102 2 1.0 9.0 2.0
103 2 1.0 8.0 3.0
104 1 0.0 9.0 3.0
105 1 0.0 8.0 4.0
106 1 1.0 9.0 4.0
107 1 1.0 8.0 5.0
108 1 0.0 9.0 5.0
109 1 0.0 8.0 6.0
110 2 1.0 9.0 6.0
111 1 1.0 8.0 7.0
112 1 0.0 9.0 7.0
113 1 0.0 8.0 8.0
114 1 1.0 9.0 8.0
115 1 1.0 8.0 9.0
116 2 0.0 9.0 9.0
117 1 0.0 8.0 10.0
118 1 1.0 9.0 10.0
119 1 1.0 8.0 11.0
120 2 0.0 9.0 11.0
121 1 0.0 10.0 0.0
122 1 1.0 11.0 0.0
123 1 1.0 10.0 1.0
124 2 0.0 11.0 1.0
125 1 0.0 10.0 2.0
126 1 1.0 11.0 2.0
127 2 1.0 10.0 3.0
128 1 0.0 11.0 3.0
129 1 0.0 10.0 4.0
130 1 1.0 11.0 4.0
131 1 1.0 10.0 5.0
132 1 0.0 11.0 5.0
133 1 0.0 10.0 6.0
134 1 1.0 11.0 6.0
135 1 1.0 10.0 7.0
136 1 0.0 11.0 7.0
137 1 0.0 10.0 8.0
138 1 1.0 11.0 8.0
139 1 1.0 10.0 9.0
140 2 0.0 11.0 9.0
141 2 0.0 10.0 10.0
142 1 1.0 11.0 10.0
143 1 1.0 10.0 11.0
144 1 0.0 11.0 11.0
145 1 2.0 0.0 0.0
146 1 3.0 1.0 0.0
147 2 3.0 0.0 1.0
148 1 2.0 1.0 1.0
149 1 2.0 0.0 2.0
150 1 3.0 1.0 2.0
151 1 3.0 0.0 3.0
152 1 2.0 1.0 3.0
153 2 2.0 0.0 4.0
154 2 3.0 1.0 4.0
155 1 3.0 0.0 5.0
156 1 2.0 1.0 5.0
157 1 2.0 0.0 6.0
158 2 3.0 1.0 6.0
159 2 3.0 0.0 7.0
160 1 2.0 1.0 7.0
161 2 2.0 0.0 8.0
162 1 3.0 1.0 8.0
163 1 3.0 0.0 9.0
164 1 2.0 1.0 9.0
165 1 2.0 0.0 10.0
166 1 3.0 1.0 10.0
167 1 3.0 0.0 11.0
168 1 2.0 1.0 11.0
169 1 2.0 2.0 0.0
170 1 3.0 3.0 0.0
171 2 3.0 2.0 1.0
172 1 2.0 3.0 1.0
173 1 2.0 2.0 2.0
174 1 3.0 3.0 2.0
175 2 3.0 2.0 3.0
176 2 2.0 3.0 3.0
177 1 2.0 2.0 4.0
178 2 3.0 3.0 4.0
179 1 3.0 2.0 5.0
180 1 2.0 3.0 5.0
181 1 2.0 2.0 6.0
182 1 3.0 3.0 6.0
183 1 3.0 2.0 7.0
184 2 2.0 3.0 7.0
185 1 2.0 2.0 8.0
186 1 3.0 3.0 8.0
187 1 3.0 2.0 9.0
188 2 2.0 3.0 9.0
189 2 2.0 2.0 10.0
190 1 3.0 3.0 10.0
191 1 3.0 2.0 11.0
192 1 2.0 3.0 11.0
193 2 2.0 4.0 0.0
194 1 3.0 5.0 0.0
195 1 3.0 4.0 1.0
196 2 2.0 5.0 1.0
197 2 2.0 4.0 2.0
198 1 3.0 5.0 2.0
199 1 3.0 4.0 3.0
200 1 2.0 5.0 3.0
201 1 2.0 4.0 4.0
202 2 3.0 5.0 4.0
203 1 3.0 4.0 5.0
204 1 2.0 5.0 5.0
205 2 2.0 4.0 6.0
206 1 3.0 5.0 6.0
207 2 3.0 4.0 7.0
208 1 2.0 5.0 7.0
209 2 2.0 4.0 8.0
210 1 3.0 5.0 8.0
211 1 3.0 4.0 9.0
212 2 2.0 5.0 9.0
213 1 2.0 4.0 10.0
214 1 3.0 5.0 10.0
215 1 3.0 4.0 11.0
216 1 2.0 5.0 11.0
217 1 2.0 6.0 0.0
218 2 3.0 7.0 0.0
219 1 3.0 6.0 1.0
220 1 2.0 7.0 1.0
221 1 2.0 6.0 2.0
222 1 3.0 7.0 2.0
223 1 3.0 6.0 3.0
224 1 2.0 7.0 3.0
225 1 2.0 6.0 4.0
226 2 3.0 7.0 4.0
227 2 3.0 6.0 5.0
228 2 2.0 7.0 5.0
229 1 2.0 6.0 6.0
230 1 3.0 7.0 6.0
231 1 3.0 6.0 7.0
232 1 2.0 7.0 7.0
233 1 2.0 6.0 8.0
234 1 3.0 7.0 8.0
235 1 3.0 6.0 9.0
236 1 2.0 7.0 9.0
237 1 2.0 6.0 10.0
238 1 3.0 7.0 10.0
239 1 3.0 6.0 11.0
240 2 2.0 7.0 11.0
241 1 2.0 8.0 0.0
242 2 3.0 9.0 0.0
243 1 3.0 8.0 1.0
244 2 2.0 9.0 1.0
245 1 2.0 8.0 2.0
246 1 3.0 9.0 2.0
247 1 3.0 8.0 3.0
248 1 2.0 9.0 3.0
249 1 2.0 8.0 4.0
250 1 3.0 9.0 4.0
251 1 3.0 8.0 5.0
252 1 2.0 9.0 5.0
253 2 2.0 8.0 6.0
254 1 3.0 9.0 6.0
255 1 3.0 8.0 7.0
256 2 2.0 9.0 7.0
257 1 2.0 8.0 8.0
258 2 3.0 9.0 8.0
259 1 3.0 8.0 9.0
260 2 2.0 9.0 9.0
261 1 2.0 8.0 10.0
262 1 3.0 9.0 10.0
263 1 3.0 8.0 11.0
264 1 2.0 9.0 11.0
265 2 2.0 10.0 0.0
266 1 3.0 11.0 0.0
267 1 3.0 10.0 1.0
268 1 2.0 11.0 1.0
269 2 2.0 10.0 2.0
270 1 3.0 11.0 2.0
271 2 3.0 10.0 3.0
272 1 2.0 11.0 3.0
273 1 2.0 10.0 4.0
274 1 3.0 11.0 4.0
275 1 3.0 10.0 5.0
276 2 2.0 11.0 5.0
277 2 2.0 10.0 6.0
278 2 3.0 11.0 6.0
279 2 3.0 10.0 7.0
280 1 2.0 11.0 7.0
281 1 2.0 10.0 8.0
282 1 3.0 11.0 8.0
283 2 3.0 10.0 9.0
284 1 2.0 11.0 9.0
285 1 2.0 10.0 10.0
286 1 3.0 11.0 10.0
287 2 3.0 10.0 11.0
288 1 2.0 11.0 11.0
289 1 4.0 0.0 0.0
290 1 5.0 1.0 0.0
291 1 5.0 0.0 1.0
292 1 4.0 1.0 1.0
293 1 4.0 0.0 2.0
294 2 5.0 1.0 2.0
295 2 5.0 0.0 3.0
296 1 4.0 1.0 3.0
297 1 4.0 0.0 4.0
298 1 5.0 1.0 4.0
299 2 5.0 0.0 5.0
300 1 4.0 1.0 5.0
301 2 4.0 0.0 6.0
302 1 5.0 1.0 6.0
303 1 5.0 0.0 7.0
304 1 4.0 1.0 7.0
305 2 4.0 0.0 8.0
306 1 5.0 1.0 8.0
307 1 5.0 0.0 9.0
308 1 4.0 1.0 9.0
309 1 4.0 0.0 10.0
310 2 5.0 1.0 10.0
311 1 5.0 0.0 11.0
312 1 4.0 1.0 11.0
313 1 4.0 2.0 0.0
314 1 5.0 3.0 0.0
315 1 5.0 2.0 1.0
316 2 4.0 3.0 1.0
317 1 4.0 2.0 2.0
318 2 5.0 3.0 2.0
319 1 5.0 2.0 3.0
320 2 4.0 3.0 3.0
321 2 4.0 2.0 4.0
322 2 5.0 3.0 4.0
323 2 5.0 2.0 5.0
324 1 4.0 3.0 5.0
325 1 4.0 2.0 6.0
326 1 5.0 3.0 6.0
327 1 5.0 2.0 7.0
328 1 4.0 3.0 7.0
329 1 4.0 2.0 8.0
330 1 5.0 3.0 8.0
331 1 5.0 2.0 9.0
332 2 4.0 3.0 9.0
333 2 4.0 2.0 10.0
334 1 5.0 3.0 10.0
335 1 5.0 2.0 11.0
336 1 4.0 3.0 11.0
337 2 4.0 4.0 0.0
338 2 5.0 5.0 0.0
339 2 5.0 4.0 1.0
340 2 4.0 5.0 1.0
341 1 4.0 4.0 2.0
342 1 5.0 5.0 2.0
343 2 5.0 4.0 3.0
344 1 4.0 5.0 3.0
345 1 4.0 4.0 4.0
346 1 5.0 5.0 4.0
347 1 5.0 4.0 5.0
348 1 4.0 5.0 5.0
349 1 4.0 4.0 6.0
350 2 5.0 5.0 6.0
351 2 5.0 4.0 7.0
352 2 4.0 5.0 7.0
353 1 4.0 4.0 8.0
354 1 5.0 5.0 8.0
355 2 5.0 4.0 9.0
356 1 4.0 5.0 9.0
357 1 4.0 4.0 10.0
358 1 5.0 5.0 10.0
359 1 5.0 4.0 11.0
360 1 4.0 5.0 11.0
361 1 4.0 6.0 0.0
362 2 5.0 7.0 0.0
363 1 5.0 6.0 1.0
364 2 4.0 7.0 1.0
365 1 4.0 6.0 2.0
366 1 5.0 7.0 2.0
367 2 5.0 6.0 3.0
368 1 4.0 7.0 3.0
369 1 4.0 6.0 4.0
370 1 5.0 7.0 4.0
371 2 5.0 6.0 5.0
372 1 4.0 7.0 5.0
373 1 4.0 6.0 6.0
374 2 5.0 7.0 6.0
375 1 5.0 6.0 7.0
376 1 4.0 7.0 7.0
377 1 4.0 6.0 8.0
378 1 5.0 7.0 8.0
379 1 5.0 6.0 9.0
380 1 4.0 7.0 9.0
381 1 4.0 6.0 10.0
382 1 5.0 7.0 10.0
383 2 5.0 6.0 11.0
384 1 4.0 7.0 11.0
385 1 4.0 8.0 0.0
386 1 5.0 9.0 0.0
387 1 5.0 8.0 1.0
388 2 4.0 9.0 1.0
389 2 4.0 8.0 2.0
390 1 5.0 9.0 2.0
391 1 5.0 8.0 3.0
392 1 4.0 9.0 3.0
393 1 4.0 8.0 4.0
394 1 5.0 9.0 4.0
395 1 5.0 8.0 5.0
396 1 4.0 9.0 5.0
397 1 4.0 8.0 6.0
398 1 5.0 9.0 6.0
399 1 5.0 8.0 7.0
400 1 4.0 9.0 7.0
401 2 4.0 8.0 8.0
402 2 5.0 9.0 8.0
403 1 5.0 8.0 9.0
404 1 4.0 9.0 9.0
405 2 4.0 8.0 10.0
406 1 5.0 9.0 10.0
407 2 5.0 8.0 11.0
408 1 4.0 9.0 11.0
409 1 4.0 10.0 0.0
410 1 5.0 11.0 0.0
411 1 5.0 10.0 1.0
412 1 4.0 11.0 1.0
413 1 4.0 10.0 2.0
414 1 5.0 11.0 2.0
415 2 5.0 10.0 3.0
416 1 4.0 11.0 3.0
417 2 4.0 10.0 4.0
418 2 5.0 11.0 4.0
419 1 5.0 10.0 5.0
420 1 4.0 11.0 5.0
421 1 4.0 10.0 6.0
422 2 5.0 11.0 6.0
423 2 5.0 10.0 7.0
424 2 4.0 11.0 7.0
425 1 4.0 10.0 8.0
426 1 5.0 11.0 8.0
427 2 5.0 10.0 9.0
428 1 4.0 11.0 9.0
429 1 4.0 10.0 10.0
430 1 5.0 11.0 10.0
431 1 5.0 10.0 11.0
432 2 4.0 11.0 11.0
433 1 6.0 0.0 0.0
434 2 7.0 1.0 0.0
435 1 7.0 0.0 1.0
436 1 6.0 1.0 1.0
437 1 6.0 0.0 2.0
438 2 7.0 1.0 2.0
439 1 7.0 0.0 3.0
440 1 6.0 1.0 3.0
441 1 6.0 0.0 4.0
442 2 7.0 1.0 4.0
443 1 7.0 0.0 5.0
444 2 6.0 1.0 5.0
445 2 6.0 0.0 6.0
446 1 7.0 1.0 6.0
447 1 7.0 0.0 7.0
448 1 6.0 1.0 7.0
449 1 6.0 0.0 8.0
450 1 7.0 1.0 8.0
451 1 7.0 0.0 9.0
452 1 6.0 1.0 9.0
453 1 6.0 0.0 10.0
454 2 7.0 1.0 10.0
455 2 7.0 0.0 11.0
456 1 6.0 1.0 11.0
457 1 6.0 2.0 0.0
458 2 7.0 3.0 0.0
459 1 7.0 2.0 1.0
460 1 6.0 3.0 1.0
461 2 6.0 2.0 2.0
462 2 7.0 3.0 2.0
463 1 7.0 2.0 3.0
464 1 6.0 3.0 3.0
465 1 6.0 2.0 4.0
466 1 7.0 3.0 4.0
467 1 7.0 2.0 5.0
468 2 6.0 3.0 5.0
469 2 6.0 2.0 6.0
470 1 7.0 3.0 6.0
471 2 7.0 2.0 7.0
472 1 6.0 3.0 7.0
473 2 6.0 2.0 8.0
474 1 7.0 3.0 8.0
475 1 7.0 2.0 9.0
476 2 6.0 3.0 9.0
477 1 6.0 2.0 10.0
478 2 7.0 3.0 10.0
479 1 7.0 2.0 11.0
480 1 6.0 3.0 11.0
481 1 6.0 4.0 0.0
482 1 7.0 5.0 0.0
483 2 7.0 4.0 1.0
484 1 6.0 5.0 1.0
485 1 6.0 4.0 2.0
486 1 7.0 5.0 2.0
487 1 7.0 4.0 3.0
488 2 6.0 5.0 3.0
489 1 6.0 4.0 4.0
490 1 7.0 5.0 4.0
491 1 7.0 4.0 5.0
492 2 6.0 5.0 5.0
493 1 6.0 4.0 6.0
494 1 7.0 5.0 6.0
495 2 7.0 4.0 7.0
496 1 6.0 5.0 7.0
497 1 6.0 4.0 8.0
498 1 7.0 5.0 8.0
499 2 7.0 4.0 9.0
500 2 6.0 5.0 9.0
501 1 6.0 4.0 10.0
502 2 7.0 5.0 10.0
503 2 7.0 4.0 11.0
504 1 6.0 5.0 11.0
505 1 6.0 6.0 0.0
506 2 7.0 7.0 0.0
507 1 7.0 6.0 1.0
508 1 6.0 7.0 1.0
509 2 6.0 6.0 2.0
510 1 7.0 7.0 2.0
511 1 7.0 6.0 3.0
512 1 6.0 7.0 3.0
513 2 6.0 6.0 4.0
514 1 7.0 7.0 4.0
515 2 7.0 6.0 5.0
516 1 6.0 7.0 5.0
517 1 6.0 6.0 6.0
518 2 7.0 7.0 6.0
519 2 7.0 6.0 7.0
520 2 6.0 7.0 7.0
521 1 6.0 6.0 8.0
522 1 7.0 7.0 8.0
523 1 7.0 6.0 9.0
524 1 6.0 7.0 9.0
525 1 6.0 6.0 10.0
526 1 7.0 7.0 10.0
527 1 7.0 6.0 11.0
528 2 6.0 7.0 11.0
529 2 6.0 8.0 0.0
530 2 7.0 9.0 0.0
531 2 7.0 8.0 1.0
532 1 6.0 9.0 1.0
533 1 6.0 8.0 2.0
534 1 7.0 9.0 2.0
535 2 7.0 8.0 3.0
536 2 6.0 9.0 3.0
537 1 6.0 8.0 4.0
538 1 7.0 9.0 4.0
539 1 7.0 8.0 5.0
540 1 6.0 9.0 5.0
541 2 6.0 8.0 6.0
542 1 7.0 9.0 6.0
543 1 7.0 8.0 7.0
544 1 6.0 9.0 7.0
545 1 6.0 8.0 8.0
546 1 7.0 9.0 8.0
547 1 7.0 8.0 9.0
548 1 6.0 9.0 9.0
549 2 6.0 8.0 10.0
550 1 7.0 9.0 10.0
551 2 7.0 8.0 11.0
552 1 6.0 9.0 11.0
553 1 6.0 10.0 0.0
554 1 7.0 11.0 0.0
555 2 7.0 10.0 1.0
556 1 6.0 11.0 1.0
557 2 6.0 10.0 2.0
558 1 7.0 11.0 2.0
559 1 7.0 10.0 3.0
560 1 6.0 11.0 3.0
561 1 6.0 10.0 4.0
562 1 7.0 11.0 4.0
563 1 7.0 10.0 5.0
564 1 6.0 11.0 5.0
565 1 6.0 10.0 6.0
566 1 7.0 11.0 6.0
567 1 7.0 10.0 7.0
568 1 6.0 11.0 7.0
569 1 6.0 10.0 8.0
570 1 7.0 11.0 8.0
571 2 7.0 10.0 9.0
572 1 6.0 11.0 9.0
573 1 6.0 10.0 10.0
574 2 7.0 11.0 10.0
575 1 7.0 10.0 11.0
576 1 6.0 11.0 11.0
577 1 8.0 0.0 0.0
578 1 9.0 1.0 0.0
579 1 9.0 0.0 1.0
580 1 8.0 1.0 1.0
581 1 8.0 0.0 2.0
582 2 9.0 1.0 2.0
583 1 9.0 0.0 3.0
584 1 8.0 1.0 3.0
585 1 8.0 0.0 4.0
586 2 9.0 1.0 4.0
587 1 9.0 0.0 5.0
588 1 8.0 1.0 5.0
589 1 8.0 0.0 6.0
590 2 9.0 1.0 6.0
591 2 9.0 0.0 7.0
592 1 8.0 1.0 7.0
593 1 8.0 0.0 8.0
594 1 9.0 1.0 8.0
595 1 9.0 0.0 9.0
596 1 8.0 1.0 9.0
597 1 8.0 0.0 10.0
598 1 9.0 1.0 10.0
599 2 9.0 0.0 11.0
600 1 8.0 1.0 11.0
601 2 8.0 2.0 0.0
602 2 9.0 3.0 0.0
603 1 9.0 2.0 1.0
604 1 8.0 3.0 1.0
605 1 8.0 2.0 2.0
606 1 9.0 3.0 2.0
607 1 9.0 2.0 3.0
608 2 8.0 3.0 3.0
609 1 8.0 2.0 4.0
610 1 9.0 3.0 4.0
611 1 9.0 2.0 5.0
612 1 8.0 3.0 5.0
613 1 8.0 2.0 6.0
614 2 9.0 3.0 6.0
615 1 9.0 2.0 7.0
616 2 8.0 3.0 7.0
617 1 8.0 2.0 8.0
618 1 9.0 3.0 8.0
619 2 9.0 2.0 9.0
620 1 8.0 3.0 9.0
621 1 8.0 2.0 10.0
622 2 9.0 3.0 10.0
623 2 9.0 2.0 11.0
624 1 8.0 3.0 11.0
625 1 8.0 4.0 0.0
626 1 9.0 5.0 0.0
627 1 9.0 4.0 1.0
628 1 8.0 5.0 1.0
629 2 8.0 4.0 2.0
630 2 9.0 5.0 2.0
631 2 9.0 4.0 3.0
632 1 8.0 5.0 3.0
633 2 8.0 4.0 4.0
634 2 9.0 5.0 4.0
635 2 9.0 4.0 5.0
636 1 8.0 5.0 5.0
637 1 8.0 4.0 6.0
638 1 9.0 5.0 6.0
639 1 9.0 4.0 7.0
640 2 8.0 5.0 7.0
641 1 8.0 4.0 8.0
642 2 9.0 5.0 8.0
643 1 9.0 4.0 9.0
644 1 8.0 5.0 9.0
645 1 8.0 4.0 10.0
646 1 9.0 5.0 10.0
647 2 9.0 4.0 11.0
648 2 8.0 5.0 11.0
649 2 8.0 6.0 0.0
650 2 9.0 7.0 0.0
651 1 9.0 6.0 1.0
652 1 8.0 7.0 1.0
653 1 8.0 6.0 2.0
654 1 9.0 7.0 2.0
655 1 9.0 6.0 3.0
656 1 8.0 7.0 3.0
657 2 8.0 6.0 4.0
658 1 9.0 7.0 4.0
659 1 9.0 6.0 5.0
660 1 8.0 7.0 5.0
661 1 8.0 6.0 6.0
662 2 9.0 7.0 6.0
663 1 9.0 6.0 7.0
664 1 8.0 7.0 7.0
665 1 8.0 6.0 8.0
666 1 9.0 7.0 8.0
667 1 9.0 6.0 9.0
668 1 8.0 7.0 9.0
669 1 8.0 6.0 10.0
670 1 9.0 7.0 10.0
671 1 9.0 6.0 11.0
672 1 8.0 7.0 11.0
673 1 8.0 8.0 0.0
674 1 9.0 9.0 0.0
675 2 9.0 8.0 1.0
676 1 8.0 9.0 1.0
677 1 8.0 8.0 2.0
678 1 9.0 9.0 2.0
679 1 9.0 8.0 3.0
680 1 8.0 9.0 3.0
681 2 8.0 8.0 4.0
682 2 9.0 9.0 4.0
683 2 9.0 8.0 5.0
684 2 8.0 9.0 5.0
685 1 8.0 8.0 6.0
686 1 9.0 9.0 6.0
687 1 9.0 8.0 7.0
688 1 8.0 9.0 7.0
689 1 8.0 8.0 8.0
690 1 9.0 9.0 8.0
691 1 9.0 8.0 9.0
692 1 8.0 9.0 9.0
693 2 8.0 8.0 10.0
694 1 9.0 9.0 10.0
695 1 9.0 8.0 11.0
696 1 8.0 9.0 11.0
697 2 8.0 10.0 0.0
698 1 9.0 11.0 0.0
699 1 9.0 10.0 1.0
700 2 8.0 11.0 1.0
701 1 8.0 10.0 2.0
702 1 9.0 11.0 2.0
703 2 9.0 10.0 3.0
704 1 8.0 11.0 3.0
705 1 8.0 10.0 4.0
706 1 9.0 11.0 4.0
707 1 9.0 10.0 5.0
708 1 8.0 11.0 5.0
709 1 8.0 10.0 6.0
710 1 9.0 11.0 6.0
711 1 9.0 10.0 7.0
712 2 8.0 11.0 7.0
713 2 8.0 10.0 8.0
714 1 9.0 11.0 8.0
715 1 9.0 10.0 9.0
716 2 8.0 11.0 9.0
717 1 8.0 10.0 10.0
718 2 9.0 11.0 10.0
719 1 9.0 10.0 11.0
720 1 8.0 11.0 11.0
721 1 10.0 0.0 0.0
722 1 11.0 1.0 0.0
723 1 11.0 0.0 1.0
724 1 10.0 1.0 1.0
725 1 10.0 0.0 2.0
726 1 11.0 1.0 2.0
727 2 11.0 0.0 3.0
728 1 10.0 1.0 3.0
729 2 10.0 0.0 4.0
730 1 11.0 1.0 4.0
731 2 11.0 0.0 5.0
732 1 10.0 1.0 5.0
733 1 10.0 0.0 6.0
734 1 11.0 1.0 6.0
735 1 11.0 0.0 7.0
736 2 10.0 1.0 7.0
737 1 10.0 0.0 8.0
738 1 11.0 1.0 8.0
739 1 11.0 0.0 9.0
740 2 10.0 1.0 9.0
741 1 10.0 0.0 10.0
742 1 11.0 1.0 10.0
743 2 11.0 0.0 11.0
744 1 10.0 1.0 11.0
745 2 10.0 2.0 0.0
746 1 11.0 3.0 0.0
747 1 11.0 2.0 1.0
748 1 10.0 3.0 1.0
749 1 10.0 2.0 2.0
750 2 11.0 3.0 2.0
751 1 11.0 2.0 3.0
752 1 10.0 3.0 3.0
753 1 10.0 2.0 4.0
754 2 11.0 3.0 4.0
755 1 11.0 2.0 5.0
756 2 10.0 3.0 5.0
757 2 10.0 2.0 6.0
758 1 11.0 3.0 6.0
759 1 11.0 2.0 7.0
760 2 10.0 3.0 7.0
761 1 10.0 2.0 8.0
762 2 11.0 3.0 8.0
763 2 11.0 2.0 9.0
764 1 10.0 3.0 9.0
765 1 10.0 2.0 10.0
766 1 11.0 3.0 10.0
767 1 11.0 2.0 11.0
768 2 10.0 3.0 11.0
769 1 10.0 4.0 0.0
770 1 11.0 5.0 0.0
771 2 11.0 4.0 1.0
772 1 10.0 5.0 1.0
773 1 10.0 4.0 2.0
774 2 11.0 5.0 2.0
775 1 11.0 4.0 3.0
776 2 10.0 5.0 3.0
777 1 10.0 4.0 4.0
778 1 11.0 5.0 4.0
779 1 11.0 4.0 5.0
780 1 10.0 5.0 5.0
781 1 10.0 4.0 6.0
782 2 11.0 5.0 6.0
783 2 11.0 4.0 7.0
784 1 10.0 5.0 7.0
785 1 10.0 4.0 8.0
786 2 11.0 5.0 8.0
787 1 11.0 4.0 9.0
788 2 10.0 5.0 9.0
789 1 10.0 4.0 10.0
790 1 11.0 5.0 10.0
791 1 11.0 4.0 11.0
792 2 10.0 5.0 11.0
793 2 10.0 6.0 0.0
794 2 11.0 7.0 0.0
795 1 11.0 6.0 1.0
796 1 10.0 7.0 1.0
797 1 10.0 6.0 2.0
798 2 11.0 7.0 2.0
799 1 11.0 6.0 3.0
800 1 10.0 7.0 3.0
801 1 10.0 6.0 4.0
802 1 11.0 7.0 4.0
803 2 11.0 6.0 5.0
804 2 10.0 7.0 5.0
805 1 10.0 6.0 6.0
806 1 11.0 7.0 6.0
807 2 11.0 6.0 7.0
808 2 10.0 7.0 7.0
809 1 10.0 6.0 8.0
810 1 11.0 7.0 8.0
811 1 11.0 6.0 9.0
812 1 10.0 7.0 9.0
813 1 10.0 6.0 10.0
814 2 11.0 7.0 10.0
815 1 11.0 6.0 11.0
816 1 10.0 7.0 11.0
817 1 10.0 8.0 0.0
818 2 11.0 9.0 0.0
819 1 11.0 8.0 1.0
820 1 10.0 9.0 1.0
821 1 10.0 8.0 2.0
822 1 11.0 9.0 2.0
823 1 11.0 8.0 3.0
824 1 10.0 9.0 3.0
825 2 10.0 8.0 4.0
826 1 11.0 9.0 4.0
827 1 11.0 8.0 5.0
828 1 10.0 9.0 5.0
829 1 10.0 8.0 6.0
830 1 11.0 9.0 6.0
831 1 11.0 8.0 7.0
832 2 10.0 9.0 7.0
833 1 10.0 8.0 8.0
834 1 11.0 9.0 8.0
835 1 11.0 8.0 9.0
836 1 10.0 9.0 9.0
837 1 10.0 8.0 10.0
838 1 11.0 9.0 10.0
839 1 11.0 8.0 11.0
840 2 10.0 9.0 11.0
841 1 10.0 10.0 0.0
842 1 11.0 11.0 0.0
843 1 11.0 10.0 1.0
844 1 10.0 11.0 1.0
845 1 10.0 10.0 2.0
846 1 11.0 11.0 2.0
847 1 11.0 10.0 3.0
848 1 10.0 11.0 3.0
849 2 10.0 10.0 4.0
850 2 11.0 11.0 4.0
851 1 11.0 10.0 5.0
852 1 10.0 11.0 5.0
853 1 10.0 10.0 6.0
854 2 11.0 11.0 6.0
855 1 11.0 10.0 7.0
856 2 10.0 11.0 7.0
857 1 10.0 10.0 8.0
858 1 11.0 11.0 8.0
859 1 11.0 10.0 9.0
860 1 10.0 11.0 9.0
861 1 10.0 10.0 10.0
862 1 11.0 11.0 10.0
863 1 11.0 10.0 11.0
864 2 10.0 11.0 11.0
