Nickle Copper Simulation

172 	atoms
0 	bonds
0 	angles
0 	dihedrals
0 	impropers

2	atom types
0	bond types
0	angle types
0	dihedral types
0	improper types

-0.02	13.82	xlo xhi
-0.02	13.82	ylo yhi
-0.02	13.82	zlo zhi

Atoms

	1	2	-0.0097	0.0004	-0.0086
	2	2	0.0045	0.0045	4.5954
	3	1	0.0015	-0.0091	9.1912
	4	2	-0.0004	-0.0014	13.7996
	5	2	-0.0067	4.6	0.0082
	6	2	0.0027	4.5984	4.6093
	7	2	-0.0059	4.5909	9.1921
	8	2	-0.0069	4.5998	13.8005
	9	2	-0.0025	9.1956	-0.0026
	10	2	-0.0004	9.1907	4.5998
	11	1	-0.0027	9.208	9.2081
	12	2	-0.0089	9.1901	13.8005
	13	1	-0.0012	13.802	-0.0044
	14	2	0.0014	13.8087	4.5934
	15	1	0.0017	13.8072	9.2013
	16	2	-0.0035	13.8037	13.8014
	17	2	4.6077	0.0036	-0.0009
	18	2	4.5977	0.0008	4.6045
	19	1	4.5911	-0.0052	9.1927
	20	2	4.6022	-0.0091	13.8067
	21	2	4.5917	4.5916	0.0091
	22	1	4.5902	4.6032	4.6043
	23	2	4.6002	4.6018	9.1974
	24	1	4.5924	4.6039	13.7959
	25	2	4.5937	9.1986	0.0004
	26	2	4.605	9.2058	4.594
	27	1	4.6079	9.2019	9.1969
	28	2	4.6004	9.1936	13.8016
	29	2	4.6049	13.8005	-0.0059
	30	2	4.5963	13.7908	4.5939
	31	2	4.5935	13.7912	9.2068
	32	2	4.5947	13.8095	13.7942
	33	1	9.1935	-0.006	0.0068
	34	2	9.2079	-0.0015	4.6042
	35	2	9.1932	-0.0009	9.1941
	36	1	9.2064	-0.0071	13.7973
	37	2	9.1986	4.5952	-0.0083
	38	2	9.2044	4.5948	4.6019
	39	1	9.1901	4.5958	9.201
	40	1	9.2018	4.6032	13.8087
	41	1	9.1915	9.206	0.0048
	42	2	9.2047	9.209	4.6085
	43	1	9.1962	9.2035	9.2065
	44	2	9.2065	9.1964	13.8042
	45	2	9.2095	13.8026	-0.0003
	46	1	9.2012	13.7942	4.5937
	47	1	9.2025	13.8042	9.2094
	48	2	9.192	13.798	13.806
	49	2	13.7987	0.0025	0.0056
	50	2	13.8008	-0.0061	4.6047
	51	2	13.8081	0.005	9.1938
	52	1	13.7927	-0.0097	13.8004
	53	1	13.8026	4.6065	-0.0096
	54	1	13.8049	4.5937	4.6052
	55	1	13.8074	4.6002	9.191
	56	2	13.7957	4.6021	13.7929
	57	1	13.7988	9.1929	-0.0078
	58	2	13.7977	9.1983	4.5969
	59	2	13.8076	9.202	9.1919
	60	2	13.7936	9.204	13.8032
	61	2	13.7996	13.8099	0.0002
	62	1	13.7998	13.7925	4.6012
	63	1	13.8047	13.8047	9.1931
	64	1	13.7908	13.7907	13.7969
	65	2	2.2984	2.2982	0.0052
	66	2	2.3025	2.3005	4.6021
	67	1	2.2959	2.2986	9.1972
	68	1	2.2904	2.2993	13.7982
	69	2	2.3022	6.8937	-0.0063
	70	1	2.3058	6.9043	4.6096
	71	1	2.2989	6.9096	9.2043
	72	2	2.3038	6.9051	13.7966
	73	2	2.296	11.5053	0.0068
	74	2	2.3068	11.5025	4.5977
	75	2	2.3026	11.4961	9.1985
	76	2	2.3028	11.4978	13.8082
	77	2	6.891	2.2944	0.004
	78	1	6.8905	2.3055	4.5903
	79	2	6.8969	2.3037	9.193
	80	2	6.8933	2.295	13.8014
	81	2	6.9086	6.9098	-0.0062
	82	1	6.9061	6.8998	4.5904
	83	2	6.894	6.9019	9.1905
	84	2	6.8911	6.9005	13.8022
	85	1	6.8973	11.4989	0.0017
	86	2	6.9013	11.4902	4.5947
	87	2	6.8999	11.5037	9.1946
	88	1	6.8904	11.5005	13.8033
	89	1	11.4948	2.296	-0.0091
	90	2	11.5028	2.2966	4.6019
	91	1	11.4984	2.3006	9.2086
	92	1	11.5088	2.3043	13.7951
	93	2	11.4931	6.9096	0.0054
	94	2	11.49	6.9047	4.5997
	95	2	11.5024	6.9096	9.1959
	96	2	11.5048	6.9016	13.7998
	97	2	11.4944	11.504	0.0038
	98	2	11.4999	11.5054	4.5982
	99	2	11.5088	11.5099	9.2086
	100	2	11.5049	11.5071	13.8084
	101	1	2.3005	-0.0019	2.2936
	102	2	2.3024	0.0051	6.9027
	103	2	2.2957	-0.0085	11.5094
	104	2	2.3014	4.6038	2.2905
	105	2	2.2915	4.6038	6.9061
	106	2	2.3044	4.6037	11.509
	107	2	2.3044	9.1902	2.2995
	108	1	2.3074	9.2096	6.8927
	109	2	2.3096	9.2002	11.5019
	110	1	2.3009	13.7975	2.309
	111	2	2.2978	13.7924	6.8998
	112	1	2.3045	13.8056	11.4919
	113	1	6.8976	-0.0035	2.3018
	114	2	6.9082	0.0087	6.8977
	115	1	6.8928	0.0039	11.5065
	116	1	6.9072	4.6065	2.2972
	117	2	6.9018	4.5906	6.8948
	118	2	6.9057	4.607	11.5014
	119	2	6.8958	9.2005	2.3012
	120	1	6.908	9.207	6.9084
	121	1	6.8954	9.2001	11.4907
	122	2	6.8963	13.797	2.3053
	123	1	6.9075	13.8004	6.9052
	124	2	6.9069	13.8089	11.4973
	125	2	11.4947	0.0093	2.2996
	126	2	11.5068	0.007	6.9061
	127	2	11.4967	-0.0081	11.4927
	128	2	11.5072	4.5984	2.3027
	129	1	11.5002	4.5903	6.9051
	130	1	11.4963	4.5975	11.497
	131	1	11.4952	9.2075	2.297
	132	2	11.4979	9.2089	6.9031
	133	2	11.5009	9.1952	11.5015
	134	2	11.5005	13.7956	2.3031
	135	2	11.5041	13.798	6.9087
	136	2	11.4906	13.798	11.497
	137	2	0.0046	2.2939	2.3035
	138	2	-0.0045	2.3017	6.9069
	139	1	-0.0059	2.3085	11.506
	140	1	-0.0008	6.8945	2.2987
	141	2	0.0044	6.8984	6.8939
	142	1	-0.0055	6.9041	11.5007
	143	2	0.0028	11.5069	2.3005
	144	2	-0.0013	11.4919	6.9072
	145	2	0.0081	11.4903	11.4925
	146	1	4.597	2.2971	2.2961
	147	2	4.5937	2.3044	6.8979
	148	1	4.6018	2.2922	11.4965
	149	2	4.6014	6.9069	2.2914
	150	2	4.6065	6.9065	6.8958
	151	1	4.6061	6.9092	11.507
	152	2	4.591	11.5025	2.2917
	153	2	4.604	11.5039	6.9
	154	1	4.6085	11.4959	11.5079
	155	1	9.2006	2.3025	2.2969
	156	2	9.1946	2.3042	6.9051
	157	2	9.2082	2.2961	11.4925
	158	1	9.2051	6.8934	2.3087
	159	2	9.1975	6.9092	6.9032
	160	2	9.1907	6.9028	11.4901
	161	2	9.1942	11.502	2.303
	162	2	9.1954	11.4943	6.8979
	163	2	9.2066	11.4923	11.4922
	164	2	13.7933	2.3018	2.2947
	165	2	13.7957	2.3026	6.901
	166	2	13.7903	2.3064	11.4939
	167	2	13.8034	6.8906	2.2929
	168	2	13.8025	6.9052	6.8912
	169	1	13.8018	6.9075	11.4994
	170	1	13.8079	11.4922	2.3065
	171	2	13.7992	11.4964	6.9018
	172	2	13.7977	11.4966	11.4907

Velocities

	1	0.0	0.0	0.0
	2	0.0	0.0	0.0
	3	0.0	0.0	0.0
	4	0.0	0.0	0.0
	5	0.0	0.0	0.0
	6	0.0	0.0	0.0
	7	0.0	0.0	0.0
	8	0.0	0.0	0.0
	9	0.0	0.0	0.0
	10	0.0	0.0	0.0
	11	0.0	0.0	0.0
	12	0.0	0.0	0.0
	13	0.0	0.0	0.0
	14	0.0	0.0	0.0
	15	0.0	0.0	0.0
	16	0.0	0.0	0.0
	17	0.0	0.0	0.0
	18	0.0	0.0	0.0
	19	0.0	0.0	0.0
	20	0.0	0.0	0.0
	21	0.0	0.0	0.0
	22	0.0	0.0	0.0
	23	0.0	0.0	0.0
	24	0.0	0.0	0.0
	25	0.0	0.0	0.0
	26	0.0	0.0	0.0
	27	0.0	0.0	0.0
	28	0.0	0.0	0.0
	29	0.0	0.0	0.0
	30	0.0	0.0	0.0
	31	0.0	0.0	0.0
	32	0.0	0.0	0.0
	33	0.0	0.0	0.0
	34	0.0	0.0	0.0
	35	0.0	0.0	0.0
	36	0.0	0.0	0.0
	37	0.0	0.0	0.0
	38	0.0	0.0	0.0
	39	0.0	0.0	0.0
	40	0.0	0.0	0.0
	41	0.0	0.0	0.0
	42	0.0	0.0	0.0
	43	0.0	0.0	0.0
	44	0.0	0.0	0.0
	45	0.0	0.0	0.0
	46	0.0	0.0	0.0
	47	0.0	0.0	0.0
	48	0.0	0.0	0.0
	49	0.0	0.0	0.0
	50	0.0	0.0	0.0
	51	0.0	0.0	0.0
	52	0.0	0.0	0.0
	53	0.0	0.0	0.0
	54	0.0	0.0	0.0
	55	0.0	0.0	0.0
	56	0.0	0.0	0.0
	57	0.0	0.0	0.0
	58	0.0	0.0	0.0
	59	0.0	0.0	0.0
	60	0.0	0.0	0.0
	61	0.0	0.0	0.0
	62	0.0	0.0	0.0
	63	0.0	0.0	0.0
	64	0.0	0.0	0.0
	65	0.0	0.0	0.0
	66	0.0	0.0	0.0
	67	0.0	0.0	0.0
	68	0.0	0.0	0.0
	69	0.0	0.0	0.0
	70	0.0	0.0	0.0
	71	0.0	0.0	0.0
	72	0.0	0.0	0.0
	73	0.0	0.0	0.0
	74	0.0	0.0	0.0
	75	0.0	0.0	0.0
	76	0.0	0.0	0.0
	77	0.0	0.0	0.0
	78	0.0	0.0	0.0
	79	0.0	0.0	0.0
	80	0.0	0.0	0.0
	81	0.0	0.0	0.0
	82	0.0	0.0	0.0
	83	0.0	0.0	0.0
	84	0.0	0.0	0.0
	85	0.0	0.0	0.0
	86	0.0	0.0	0.0
	87	0.0	0.0	0.0
	88	0.0	0.0	0.0
	89	0.0	0.0	0.0
	90	0.0	0.0	0.0
	91	0.0	0.0	0.0
	92	0.0	0.0	0.0
	93	0.0	0.0	0.0
	94	0.0	0.0	0.0
	95	0.0	0.0	0.0
	96	0.0	0.0	0.0
	97	0.0	0.0	0.0
	98	0.0	0.0	0.0
	99	0.0	0.0	0.0
	100	0.0	0.0	0.0
	101	0.0	0.0	0.0
	102	0.0	0.0	0.0
	103	0.0	0.0	0.0
	104	0.0	0.0	0.0
	105	0.0	0.0	0.0
	106	0.0	0.0	0.0
	107	0.0	0.0	0.0
	108	0.0	0.0	0.0
	109	0.0	0.0	0.0
	110	0.0	0.0	0.0
	111	0.0	0.0	0.0
	112	0.0	0.0	0.0
	113	0.0	0.0	0.0
	114	0.0	0.0	0.0
	115	0.0	0.0	0.0
	116	0.0	0.0	0.0
	117	0.0	0.0	0.0
	118	0.0	0.0	0.0
	119	0.0	0.0	0.0
	120	0.0	0.0	0.0
	121	0.0	0.0	0.0
	122	0.0	0.0	0.0
	123	0.0	0.0	0.0
	124	0.0	0.0	0.0
	125	0.0	0.0	0.0
	126	0.0	0.0	0.0
	127	0.0	0.0	0.0
	128	0.0	0.0	0.0
	129	0.0	0.0	0.0
	130	0.0	0.0	0.0
	131	0.0	0.0	0.0
	132	0.0	0.0	0.0
	133	0.0	0.0	0.0
	134	0.0	0.0	0.0
	135	0.0	0.0	0.0
	136	0.0	0.0	0.0
	137	0.0	0.0	0.0
	138	0.0	0.0	0.0
	139	0.0	0.0	0.0
	140	0.0	0.0	0.0
	141	0.0	0.0	0.0
	142	0.0	0.0	0.0
	143	0.0	0.0	0.0
	144	0.0	0.0	0.0
	145	0.0	0.0	0.0
	146	0.0	0.0	0.0
	147	0.0	0.0	0.0
	148	0.0	0.0	0.0
	149	0.0	0.0	0.0
	150	0.0	0.0	0.0
	151	0.0	0.0	0.0
	152	0.0	0.0	0.0
	153	0.0	0.0	0.0
	154	0.0	0.0	0.0
	155	0.0	0.0	0.0
	156	0.0	0.0	0.0
	157	0.0	0.0	0.0
	158	0.0	0.0	0.0
	159	0.0	0.0	0.0
	160	0.0	0.0	0.0
	161	0.0	0.0	0.0
	162	0.0	0.0	0.0
	163	0.0	0.0	0.0
	164	0.0	0.0	0.0
	165	0.0	0.0	0.0
	166	0.0	0.0	0.0
	167	0.0	0.0	0.0
	168	0.0	0.0	0.0
	169	0.0	0.0	0.0
	170	0.0	0.0	0.0
	171	0.0	0.0	0.0
	172	-0.0	-0.0	-0.0

