Nickle Copper Simulation

9842 	atoms
0 	bonds
0 	angles
0 	dihedrals
0 	impropers

2	atom types
0	bond types
0	angle types
0	dihedral types
0	improper types

-0.02	59.82	xlo xhi
-0.02	59.82	ylo yhi
-0.02	59.82	zlo zhi

Atoms

	1	2	-0.0096	-0.0056	-0.0064
	2	2	-0.0097	0.0083	4.6087
	3	2	-0.0048	0.0067	9.1971
	4	1	-0.0062	-0.0083	13.806
	5	2	-0.0072	-0.0034	18.404
	6	2	-0.0089	-0.0074	22.9918
	7	2	-0.0098	0.0085	27.5939
	8	1	-0.0079	-0.0002	32.2092
	9	2	0.0036	-0.0038	36.7921
	10	2	0.0059	0.0082	41.3902
	11	1	-0.0071	0.0051	45.9976
	12	2	0.0022	-0.0036	50.6058
	13	2	0.0067	0.0009	55.206
	14	1	0.0092	-0.0075	59.7954
	15	2	0.0083	4.6016	0.0004
	16	2	0.0074	4.5953	4.607
	17	1	0.0023	4.5947	9.2079
	18	1	-0.0054	4.596	13.7989
	19	1	-0.0008	4.5948	18.3962
	20	1	0.0095	4.6022	23.0042
	21	2	0.0039	4.6013	27.6072
	22	2	0.0044	4.5945	32.1902
	23	1	-0.0033	4.5985	36.7943
	24	1	0.0049	4.6092	41.4036
	25	1	-0.0004	4.5999	45.9981
	26	2	-0.0071	4.5963	50.5917
	27	2	0.0001	4.6079	55.1941
	28	2	0.0019	4.5918	59.7974
	29	1	0.0031	9.2027	0.0068
	30	2	0.0075	9.2041	4.5961
	31	1	0.01	9.209	9.1922
	32	1	0.0085	9.2036	13.7958
	33	2	-0.0022	9.1971	18.398
	34	2	-0.0091	9.2079	23.0003
	35	1	0.0098	9.2069	27.595
	36	2	-0.0016	9.2026	32.1966
	37	2	0.0057	9.202	36.7922
	38	2	-0.0027	9.2065	41.3904
	39	2	-0.0065	9.1943	45.9956
	40	2	-0.0019	9.208	50.5974
	41	1	-0.0051	9.1905	55.2092
	42	2	0.0059	9.1915	59.7988
	43	2	0.0042	13.792	-0.0019
	44	2	-0.0073	13.8032	4.6096
	45	2	-0.0048	13.7965	9.2067
	46	1	-0.0033	13.7908	13.7991
	47	1	-0.0026	13.8062	18.4097
	48	1	0.0094	13.7998	22.9996
	49	1	0.0051	13.799	27.6054
	50	2	-0.0081	13.7937	32.1904
	51	2	0.0035	13.7927	36.8022
	52	1	-0.0067	13.7978	41.4064
	53	1	0.0015	13.7904	46.008
	54	2	-0.0021	13.7932	50.6002
	55	2	0.0038	13.7971	55.2097
	56	2	0.0002	13.8006	59.8066
	57	1	0.007	18.3996	0.0083
	58	2	0.0068	18.4071	4.6064
	59	2	0.0083	18.3938	9.2015
	60	2	0.0088	18.3958	13.7902
	61	1	-0.0039	18.3956	18.3961
	62	1	0.0084	18.3942	23.0078
	63	2	-0.0041	18.3954	27.6067
	64	1	-0.0056	18.391	32.2085
	65	2	-0.005	18.4018	36.8065
	66	1	-0.0058	18.4038	41.4022
	67	1	0.006	18.4062	45.9991
	68	2	0.0048	18.393	50.6066
	69	2	-0.0078	18.3913	55.1947
	70	2	-0.0062	18.403	59.8015
	71	1	-0.0075	22.997	0.0017
	72	2	-0.0073	22.9954	4.6017
	73	2	0.0019	22.9973	9.2054
	74	2	0.0094	23.0014	13.7994
	75	2	-0.0	22.9932	18.3916
	76	2	-0.0077	23.0065	23.006
	77	2	0.0029	22.9952	27.5984
	78	2	0.0006	23.0001	32.191
	79	2	0.0051	23.0032	36.8007
	80	2	-0.0019	22.9903	41.3931
	81	2	-0.0009	22.9954	46.0032
	82	1	-0.0032	23.0069	50.5943
	83	2	0.0096	22.9963	55.2028
	84	2	0.0017	22.9944	59.7964
	85	1	0.0011	27.5975	-0.0047
	86	1	-0.0058	27.5996	4.6067
	87	2	0.0097	27.6037	9.1982
	88	1	-0.0053	27.5908	13.8059
	89	2	-0.0026	27.5945	18.3964
	90	2	0.0026	27.597	23.0079
	91	2	-0.0037	27.609	27.606
	92	1	-0.0016	27.5924	32.2042
	93	1	0.0047	27.5995	36.7995
	94	2	-0.007	27.5971	41.4083
	95	2	0.0093	27.5924	45.9966
	96	1	0.0092	27.5937	50.6002
	97	1	0.0024	27.6076	55.2073
	98	2	0.0073	27.5998	59.8068
	99	2	-0.0034	32.2011	-0.0033
	100	2	0.0081	32.1901	4.5923
	101	2	-0.0034	32.204	9.2036
	102	2	-0.0073	32.2022	13.8065
	103	2	-0.0063	32.2035	18.393
	104	2	-0.0094	32.1991	22.9941
	105	2	0.0025	32.2058	27.6082
	106	2	-0.0096	32.205	32.1979
	107	2	-0.0004	32.2023	36.8076
	108	2	-0.0	32.2075	41.3981
	109	2	-0.0082	32.1975	46.0025
	110	1	0.0002	32.2083	50.5918
	111	2	0.0088	32.208	55.2047
	112	2	-0.0004	32.1902	59.8022
	113	2	0.0083	36.7915	0.0066
	114	2	0.0	36.7912	4.5991
	115	2	-0.0048	36.8008	9.2017
	116	1	0.0007	36.8095	13.8052
	117	1	-0.0011	36.803	18.4048
	118	1	-0.0073	36.8069	23.0085
	119	2	-0.0026	36.8058	27.6057
	120	1	0.0085	36.7987	32.203
	121	2	-0.0075	36.7957	36.7905
	122	2	0.0058	36.8079	41.3933
	123	2	0.0012	36.7925	46.0005
	124	2	0.0097	36.8038	50.5916
	125	2	-0.0018	36.7946	55.192
	126	2	-0.0008	36.7966	59.8011
	127	1	0.0017	41.409	0.0011
	128	2	0.0077	41.4083	4.5958
	129	2	0.0006	41.3946	9.1928
	130	2	-0.0074	41.4061	13.7942
	131	2	0.0007	41.3947	18.4059
	132	1	0.0096	41.4017	23.0028
	133	1	0.006	41.394	27.5904
	134	2	-0.0024	41.3965	32.1913
	135	2	0.0067	41.3951	36.803
	136	1	0.0016	41.3937	41.4094
	137	2	0.0007	41.407	45.9987
	138	2	0.0051	41.3905	50.5935
	139	2	0.0028	41.4023	55.1975
	140	2	-0.0031	41.4064	59.7965
	141	1	-0.0009	45.9925	-0.0041
	142	2	0.0054	45.9989	4.5996
	143	2	0.0032	45.9926	9.192
	144	2	0.0035	45.9967	13.803
	145	2	0.0031	46.0057	18.4
	146	2	-0.0014	45.9949	23.0
	147	2	-0.0046	46.0013	27.5975
	148	2	0.0036	45.9981	32.1952
	149	2	-0.0066	45.9929	36.7943
	150	2	0.0014	45.9987	41.401
	151	2	-0.0077	45.9907	46.0067
	152	2	0.0068	46.0057	50.6069
	153	2	-0.0043	45.9906	55.2086
	154	2	-0.0089	46.003	59.8033
	155	2	-0.0036	50.6091	-0.0065
	156	1	0.0007	50.6086	4.6063
	157	1	-0.0014	50.6086	9.203
	158	1	0.0084	50.6012	13.7929
	159	2	-0.0023	50.5929	18.4017
	160	2	0.0	50.601	22.9922
	161	1	0.0072	50.6071	27.5959
	162	1	-0.0075	50.597	32.1914
	163	2	-0.0057	50.6079	36.794
	164	2	0.0037	50.6055	41.4036
	165	1	0.0056	50.5949	45.9988
	166	2	0.0086	50.5949	50.6043
	167	2	0.007	50.6018	55.1961
	168	2	0.0035	50.6005	59.7935
	169	1	0.0068	55.1983	-0.0045
	170	1	-0.0026	55.1909	4.6064
	171	2	0.0008	55.1927	9.2079
	172	1	-0.0019	55.2027	13.8057
	173	2	0.0081	55.2064	18.4065
	174	2	-0.0069	55.2019	23.0074
	175	2	0.0041	55.193	27.6096
	176	2	-0.0083	55.2013	32.2021
	177	2	0.0041	55.1955	36.8052
	178	1	0.0012	55.1974	41.4037
	179	2	0.0004	55.1941	45.9912
	180	2	-0.0058	55.1951	50.5966
	181	2	0.0065	55.1972	55.2021
	182	2	0.0053	55.2005	59.7928
	183	1	-0.0083	59.7916	-0.0086
	184	1	0.0051	59.7976	4.5907
	185	2	-0.0041	59.7905	9.2065
	186	2	-0.0086	59.8035	13.7979
	187	1	0.0095	59.8082	18.391
	188	1	0.0089	59.8084	23.0035
	189	2	0.0047	59.7935	27.6052
	190	2	0.0062	59.796	32.2017
	191	1	0.0069	59.7961	36.8012
	192	2	-0.0049	59.8059	41.4028
	193	2	0.0072	59.8022	45.9976
	194	2	-0.0003	59.7961	50.6097
	195	2	-0.0022	59.8048	55.2009
	196	2	0.001	59.8074	59.793
	197	2	4.6034	0.0029	0.0068
	198	2	4.6086	0.007	4.6031
	199	2	4.592	0.0034	9.2082
	200	2	4.6067	0.0044	13.8032
	201	2	4.6099	0.0064	18.3905
	202	1	4.6056	-0.0082	23.0097
	203	2	4.5933	0.0076	27.6062
	204	1	4.6062	0.0062	32.203
	205	2	4.5927	0.0088	36.7987
	206	2	4.6054	0.0006	41.4003
	207	2	4.6098	0.005	45.9901
	208	2	4.6082	0.0076	50.5955
	209	2	4.5929	0.0087	55.192
	210	2	4.6084	0.0027	59.8028
	211	1	4.6002	4.6019	0.0017
	212	2	4.6084	4.5909	4.6046
	213	1	4.6031	4.5996	9.2022
	214	1	4.5935	4.5923	13.7902
	215	1	4.6019	4.6067	18.3927
	216	1	4.6007	4.5963	23.0093
	217	2	4.6016	4.5953	27.6083
	218	2	4.5989	4.6003	32.1974
	219	1	4.5956	4.5959	36.8063
	220	2	4.601	4.6058	41.4028
	221	2	4.5999	4.6071	45.9951
	222	1	4.6015	4.6042	50.6063
	223	2	4.5908	4.6084	55.1975
	224	1	4.6054	4.6038	59.8029
	225	2	4.5963	9.2044	0.0053
	226	2	4.6014	9.1995	4.6092
	227	2	4.5908	9.1947	9.1996
	228	1	4.6032	9.2019	13.804
	229	1	4.5957	9.1915	18.3967
	230	2	4.603	9.2073	22.9906
	231	2	4.5991	9.2029	27.5963
	232	1	4.5961	9.1903	32.194
	233	2	4.6016	9.1916	36.8034
	234	2	4.5902	9.2094	41.4049
	235	2	4.6095	9.1952	46.0048
	236	2	4.5986	9.2006	50.6085
	237	2	4.5937	9.198	55.2041
	238	2	4.5964	9.2067	59.8038
	239	2	4.5975	13.798	-0.0044
	240	2	4.5953	13.8041	4.5947
	241	2	4.5911	13.8	9.1999
	242	2	4.5955	13.7914	13.7926
	243	2	4.5945	13.7901	18.4041
	244	2	4.6082	13.7985	22.9909
	245	2	4.6067	13.8031	27.6067
	246	2	4.6039	13.8011	32.2005
	247	1	4.5905	13.806	36.8044
	248	2	4.5972	13.8072	41.4064
	249	2	4.6005	13.8087	46.0015
	250	1	4.5989	13.8008	50.5976
	251	2	4.6081	13.8061	55.2041
	252	1	4.5926	13.7967	59.7989
	253	2	4.595	18.4072	0.0034
	254	1	4.5963	18.4036	4.6091
	255	2	4.6085	18.4001	9.2023
	256	1	4.6081	18.392	13.7912
	257	2	4.5921	18.4079	18.3972
	258	2	4.597	18.4049	22.9991
	259	1	4.5902	18.394	27.5974
	260	1	4.6077	18.4045	32.2092
	261	1	4.5934	18.4043	36.803
	262	1	4.604	18.4074	41.4097
	263	1	4.6051	18.4029	45.9965
	264	2	4.6068	18.4057	50.6011
	265	1	4.5914	18.3913	55.2025
	266	2	4.604	18.4017	59.7944
	267	1	4.5975	22.997	-0.0052
	268	1	4.5964	23.0094	4.6097
	269	2	4.602	23.0062	9.2073
	270	2	4.5994	23.0018	13.7976
	271	2	4.5944	23.0063	18.3917
	272	2	4.6089	23.0016	22.9984
	273	2	4.6	22.994	27.6002
	274	2	4.5928	23.0085	32.1982
	275	2	4.5998	22.992	36.7953
	276	2	4.6067	23.0009	41.4011
	277	2	4.5902	23.0064	46.0014
	278	2	4.6004	22.995	50.5927
	279	2	4.5982	23.0026	55.202
	280	2	4.5985	22.9954	59.8002
	281	2	4.6037	27.6036	0.0094
	282	2	4.5962	27.6046	4.6067
	283	2	4.5921	27.5969	9.1963
	284	2	4.6027	27.596	13.8025
	285	2	4.5933	27.5994	18.3981
	286	2	4.5966	27.6086	23.0024
	287	2	4.6003	27.5973	27.6032
	288	1	4.6093	27.6084	32.1931
	289	2	4.609	27.5967	36.7988
	290	2	4.6044	27.6084	41.4072
	291	2	4.5909	27.603	46.0078
	292	1	4.5932	27.6009	50.5984
	293	2	4.599	27.6084	55.2091
	294	1	4.5903	27.596	59.802
	295	2	4.6027	32.2058	0.0064
	296	2	4.6064	32.2096	4.6087
	297	1	4.5912	32.203	9.1947
	298	1	4.5963	32.2028	13.808
	299	2	4.607	32.2092	18.4072
	300	2	4.607	32.2068	23.0061
	301	1	4.6035	32.1982	27.603
	302	1	4.5995	32.1915	32.1995
	303	2	4.5995	32.196	36.791
	304	2	4.6067	32.1973	41.4063
	305	2	4.5968	32.191	45.9922
	306	2	4.5915	32.193	50.6094
	307	2	4.5971	32.1972	55.1931
	308	2	4.605	32.2075	59.7995
	309	2	4.6044	36.8072	-0.0011
	310	1	4.5997	36.8056	4.6002
	311	2	4.6064	36.8053	9.2097
	312	2	4.6068	36.7929	13.8068
	313	1	4.6013	36.7989	18.3984
	314	1	4.5973	36.7991	22.9928
	315	1	4.6052	36.7969	27.5998
	316	2	4.5941	36.8082	32.2006
	317	1	4.604	36.8002	36.8057
	318	2	4.5951	36.8011	41.4079
	319	2	4.5985	36.8025	45.996
	320	2	4.6077	36.8009	50.6074
	321	1	4.5918	36.7985	55.2085
	322	2	4.599	36.8095	59.7919
	323	2	4.5924	41.4095	0.0042
	324	2	4.6031	41.4006	4.5938
	325	2	4.5967	41.4096	9.1902
	326	2	4.6083	41.4006	13.8006
	327	2	4.5953	41.4023	18.3957
	328	2	4.5992	41.4025	23.0007
	329	2	4.6008	41.3983	27.5903
	330	2	4.6062	41.3971	32.2057
	331	2	4.5907	41.394	36.801
	332	2	4.5998	41.4026	41.4024
	333	2	4.599	41.3946	46.0042
	334	1	4.5979	41.3945	50.608
	335	2	4.5918	41.3957	55.2064
	336	2	4.6071	41.4075	59.7911
	337	1	4.6026	45.998	-0.0063
	338	2	4.6028	46.0087	4.5916
	339	1	4.6019	46.0075	9.2074
	340	2	4.6053	45.9999	13.8014
	341	2	4.601	45.9995	18.3991
	342	2	4.599	46.0048	23.0055
	343	2	4.6087	45.9902	27.6098
	344	2	4.6099	46.0015	32.1947
	345	1	4.6071	45.9992	36.7908
	346	2	4.6057	46.0005	41.4047
	347	1	4.5963	46.003	45.9947
	348	1	4.5973	46.0062	50.5982
	349	2	4.609	46.0056	55.2092
	350	2	4.5998	46.0013	59.7973
	351	2	4.6045	50.6074	0.0022
	352	1	4.6076	50.6011	4.606
	353	1	4.5998	50.6057	9.2082
	354	2	4.5967	50.605	13.8005
	355	1	4.5997	50.6053	18.394
	356	2	4.6045	50.5915	23.0008
	357	1	4.5938	50.6004	27.5972
	358	2	4.5938	50.6031	32.2077
	359	2	4.5917	50.5951	36.8015
	360	2	4.5984	50.5993	41.4068
	361	2	4.6027	50.6083	46.0073
	362	1	4.6006	50.6018	50.6074
	363	2	4.5909	50.5986	55.1975
	364	2	4.6098	50.5927	59.7998
	365	2	4.5994	55.194	0.0007
	366	2	4.6095	55.1935	4.5986
	367	2	4.591	55.2067	9.2031
	368	2	4.6071	55.2011	13.8054
	369	2	4.6002	55.2048	18.3995
	370	2	4.6077	55.1975	22.9968
	371	2	4.6026	55.1926	27.5998
	372	2	4.5935	55.1926	32.1967
	373	2	4.597	55.2038	36.7996
	374	2	4.5979	55.2037	41.392
	375	2	4.5918	55.2037	46.0094
	376	1	4.5948	55.1905	50.5935
	377	1	4.6019	55.1995	55.1921
	378	2	4.608	55.1999	59.797
	379	1	4.6021	59.7943	0.0099
	380	2	4.5942	59.7941	4.5946
	381	2	4.5985	59.798	9.2074
	382	2	4.594	59.8028	13.7999
	383	1	4.601	59.8092	18.4034
	384	2	4.5969	59.8097	23.0011
	385	1	4.6065	59.8098	27.6064
	386	1	4.6008	59.8032	32.1922
	387	1	4.6051	59.7971	36.7904
	388	2	4.6063	59.7985	41.4031
	389	2	4.6038	59.7932	45.9966
	390	2	4.5992	59.791	50.5964
	391	2	4.5944	59.81	55.2011
	392	1	4.6089	59.8073	59.796
	393	2	9.1905	-0.0012	-0.0092
	394	1	9.1989	0.0072	4.6075
	395	1	9.1905	-0.0093	9.1936
	396	1	9.1953	-0.0033	13.8008
	397	2	9.1938	0.0056	18.4045
	398	1	9.2079	0.0027	23.0054
	399	2	9.1971	0.0081	27.6003
	400	2	9.1994	0.007	32.2085
	401	2	9.2008	0.0082	36.7983
	402	1	9.2068	-0.0072	41.3921
	403	2	9.199	0.0016	46.0095
	404	1	9.205	0.0082	50.6081
	405	2	9.2023	-0.0041	55.1937
	406	2	9.2049	-0.005	59.8037
	407	2	9.1949	4.6031	0.0041
	408	2	9.1999	4.6089	4.6055
	409	2	9.1959	4.6055	9.1901
	410	2	9.2044	4.5939	13.8039
	411	2	9.2039	4.5924	18.4028
	412	2	9.2067	4.6086	23.0091
	413	2	9.2008	4.6007	27.6089
	414	2	9.2073	4.6059	32.199
	415	1	9.2019	4.6049	36.7943
	416	2	9.1908	4.6082	41.4031
	417	2	9.2018	4.5928	45.9993
	418	1	9.1925	4.6027	50.6019
	419	2	9.196	4.596	55.2007
	420	1	9.1963	4.6062	59.7918
	421	2	9.1997	9.2025	0.0007
	422	2	9.1958	9.2091	4.6072
	423	2	9.197	9.1954	9.1966
	424	2	9.1994	9.1931	13.8075
	425	1	9.1953	9.199	18.3954
	426	2	9.1945	9.2036	23.0082
	427	2	9.2024	9.2055	27.6019
	428	1	9.2025	9.2031	32.2012
	429	2	9.2027	9.2025	36.796
	430	2	9.2023	9.206	41.4039
	431	2	9.2069	9.1957	45.992
	432	2	9.1978	9.2049	50.6007
	433	1	9.1992	9.2014	55.1938
	434	2	9.1993	9.1904	59.7949
	435	1	9.193	13.791	-0.0071
	436	1	9.1911	13.802	4.5945
	437	1	9.1944	13.8083	9.1993
	438	1	9.2081	13.8058	13.7906
	439	2	9.2083	13.7956	18.4085
	440	2	9.2021	13.7913	22.9988
	441	2	9.2009	13.7944	27.6034
	442	2	9.1968	13.7966	32.1997
	443	1	9.2058	13.8095	36.8088
	444	1	9.1949	13.8074	41.3969
	445	1	9.2091	13.7974	46.0015
	446	2	9.2064	13.794	50.5935
	447	2	9.2081	13.7987	55.2061
	448	2	9.2033	13.7912	59.8077
	449	2	9.1945	18.4037	-0.0002
	450	2	9.2068	18.4087	4.5922
	451	2	9.2052	18.4016	9.205
	452	2	9.1975	18.4035	13.8001
	453	2	9.2065	18.4025	18.3938
	454	2	9.1927	18.3999	23.0063
	455	2	9.1978	18.4043	27.6041
	456	1	9.2089	18.4014	32.2047
	457	2	9.2078	18.4093	36.8056
	458	1	9.2011	18.4049	41.4086
	459	2	9.2085	18.3959	46.0034
	460	1	9.1948	18.4037	50.6082
	461	2	9.2049	18.4081	55.2008
	462	2	9.1925	18.4036	59.7928
	463	2	9.2011	23.0053	-0.0002
	464	2	9.2018	23.0034	4.5972
	465	2	9.1919	23.0061	9.2047
	466	2	9.1982	22.9981	13.7942
	467	2	9.2067	23.0086	18.4065
	468	2	9.2062	23.008	23.0021
	469	2	9.2089	22.9984	27.5993
	470	2	9.2006	23.0063	32.1944
	471	1	9.2055	23.0019	36.7996
	472	2	9.1988	22.9971	41.4042
	473	2	9.2014	22.9936	46.0076
	474	2	9.1956	22.9971	50.5926
	475	2	9.1916	22.9909	55.2062
	476	2	9.208	23.001	59.8024
	477	2	9.21	27.5908	0.0091
	478	2	9.207	27.5961	4.597
	479	1	9.2013	27.5914	9.2023
	480	2	9.1957	27.6041	13.8051
	481	1	9.1926	27.5939	18.394
	482	2	9.1909	27.6086	22.9937
	483	2	9.1956	27.5953	27.5982
	484	2	9.1974	27.6005	32.1962
	485	2	9.2031	27.5969	36.8058
	486	1	9.1947	27.6001	41.4034
	487	1	9.2042	27.606	46.0056
	488	2	9.2021	27.5935	50.592
	489	2	9.1932	27.5983	55.2008
	490	2	9.2013	27.6089	59.7923
	491	2	9.21	32.2049	-0.0091
	492	1	9.2026	32.2054	4.5908
	493	2	9.1903	32.2075	9.1999
	494	2	9.2043	32.1916	13.8084
	495	2	9.2091	32.2021	18.3903
	496	1	9.2007	32.191	23.0062
	497	2	9.1923	32.1983	27.6015
	498	2	9.1917	32.1901	32.2099
	499	2	9.2	32.1952	36.8012
	500	2	9.1952	32.1934	41.3919
	501	2	9.206	32.197	45.9935
	502	1	9.1979	32.2058	50.5998
	503	2	9.197	32.2036	55.2095
	504	1	9.2086	32.2061	59.8072
	505	1	9.2062	36.7919	0.0086
	506	2	9.2095	36.7957	4.5934
	507	2	9.1972	36.8097	9.2081
	508	2	9.1976	36.8093	13.7958
	509	1	9.2048	36.8048	18.4034
	510	1	9.1974	36.7959	23.0069
	511	2	9.1919	36.798	27.6098
	512	2	9.2004	36.7953	32.1977
	513	2	9.2036	36.7997	36.8079
	514	1	9.2097	36.7949	41.4016
	515	2	9.1923	36.7942	45.9952
	516	1	9.2033	36.8013	50.6035
	517	2	9.1994	36.7929	55.1924
	518	1	9.2055	36.7931	59.7958
	519	2	9.2003	41.3929	-0.0085
	520	1	9.2064	41.3973	4.6038
	521	1	9.2069	41.3982	9.1913
	522	2	9.2062	41.4017	13.8095
	523	2	9.2014	41.4087	18.3933
	524	2	9.2021	41.4023	23.0098
	525	2	9.203	41.3913	27.6075
	526	2	9.2016	41.4097	32.1972
	527	2	9.2072	41.4066	36.8058
	528	1	9.1955	41.4068	41.3976
	529	2	9.1914	41.3921	46.0002
	530	2	9.21	41.402	50.5966
	531	2	9.1907	41.3917	55.2099
	532	2	9.2038	41.4039	59.8087
	533	1	9.205	45.9963	-0.0037
	534	2	9.2	46.009	4.6026
	535	1	9.2016	45.9915	9.1984
	536	2	9.2033	46.0071	13.7967
	537	1	9.196	45.9982	18.4006
	538	2	9.2028	45.9931	23.0022
	539	1	9.2085	45.9903	27.5985
	540	2	9.2019	46.0005	32.2005
	541	2	9.2079	46.003	36.7971
	542	2	9.1911	45.9948	41.4068
	543	2	9.2	46.0052	45.9942
	544	1	9.2015	45.9981	50.5966
	545	2	9.2078	45.9952	55.1938
	546	1	9.1956	45.9954	59.7988
	547	2	9.1967	50.6085	-0.0008
	548	2	9.2088	50.6006	4.5945
	549	2	9.2072	50.6032	9.2063
	550	2	9.1933	50.5999	13.7902
	551	2	9.2037	50.6098	18.3983
	552	2	9.1905	50.6064	23.0007
	553	1	9.2088	50.5997	27.6043
	554	2	9.2058	50.6039	32.1962
	555	2	9.1967	50.5998	36.806
	556	2	9.2058	50.6044	41.4064
	557	2	9.2093	50.5991	45.993
	558	2	9.1998	50.599	50.5934
	559	2	9.1925	50.598	55.2074
	560	2	9.2055	50.6048	59.8056
	561	2	9.1909	55.1924	-0.0024
	562	1	9.1926	55.1938	4.5997
	563	1	9.2016	55.1921	9.1961
	564	2	9.2061	55.2068	13.8069
	565	1	9.2078	55.201	18.3922
	566	1	9.192	55.1966	22.9978
	567	2	9.2057	55.1907	27.6001
	568	2	9.2065	55.19	32.2097
	569	2	9.2011	55.2093	36.8036
	570	2	9.2008	55.2097	41.3987
	571	2	9.2014	55.1997	46.0004
	572	1	9.197	55.1982	50.5958
	573	2	9.2016	55.1956	55.1916
	574	1	9.1916	55.1964	59.7916
	575	2	9.2048	59.8044	0.0092
	576	1	9.2027	59.798	4.6061
	577	2	9.1944	59.7966	9.2035
	578	2	9.1965	59.8083	13.8025
	579	2	9.208	59.7979	18.4043
	580	1	9.2061	59.793	22.9998
	581	2	9.1937	59.7917	27.5927
	582	2	9.2033	59.7929	32.2005
	583	2	9.2076	59.7928	36.8021
	584	1	9.1982	59.7948	41.398
	585	2	9.2011	59.7912	46.0035
	586	2	9.1908	59.8013	50.6005
	587	2	9.2058	59.8051	55.2016
	588	2	9.2089	59.7932	59.7996
	589	2	13.7943	-0.0012	0.0053
	590	2	13.7905	0.007	4.5988
	591	2	13.8097	-0.009	9.1987
	592	2	13.8067	-0.009	13.8017
	593	2	13.8077	-0.0065	18.4051
	594	2	13.7988	0.0019	22.994
	595	2	13.807	-0.0087	27.5914
	596	2	13.7961	0.0052	32.2006
	597	2	13.7949	-0.0067	36.806
	598	1	13.7909	0.0033	41.3928
	599	1	13.7983	0.0017	46.0013
	600	1	13.797	-0.002	50.5993
	601	2	13.8038	-0.0068	55.1996
	602	1	13.799	-0.0095	59.7978
	603	2	13.8042	4.5947	0.0025
	604	2	13.8024	4.6012	4.6064
	605	2	13.7931	4.5985	9.196
	606	2	13.8056	4.5923	13.7963
	607	2	13.809	4.595	18.4014
	608	1	13.7923	4.6016	23.0087
	609	2	13.7972	4.5925	27.594
	610	1	13.8035	4.5967	32.197
	611	2	13.7919	4.5934	36.7932
	612	2	13.7922	4.6097	41.4045
	613	1	13.8021	4.6003	46.0014
	614	2	13.7994	4.5942	50.5965
	615	2	13.7933	4.609	55.1938
	616	2	13.8066	4.6093	59.8051
	617	1	13.7952	9.2003	-0.0053
	618	2	13.7929	9.2067	4.6005
	619	2	13.7973	9.202	9.197
	620	2	13.8059	9.1942	13.8089
	621	2	13.8064	9.1912	18.401
	622	2	13.7938	9.1987	23.0061
	623	2	13.8064	9.2052	27.6042
	624	2	13.8054	9.2007	32.1978
	625	2	13.7928	9.1919	36.7962
	626	1	13.8041	9.202	41.4052
	627	1	13.7933	9.1974	45.9964
	628	2	13.8067	9.2021	50.5992
	629	2	13.8019	9.203	55.1921
	630	1	13.792	9.2051	59.8061
	631	2	13.8014	13.7928	0.0008
	632	2	13.8083	13.7964	4.5921
	633	1	13.7953	13.7991	9.1938
	634	2	13.7979	13.8052	13.8061
	635	2	13.8003	13.791	18.3987
	636	2	13.7948	13.7975	22.992
	637	1	13.8	13.7989	27.6009
	638	2	13.8085	13.7902	32.1975
	639	2	13.8084	13.8026	36.797
	640	2	13.7913	13.8054	41.3934
	641	2	13.807	13.7986	45.9976
	642	2	13.8019	13.8065	50.6015
	643	2	13.8082	13.8026	55.2079
	644	2	13.7937	13.7954	59.7926
	645	2	13.7933	18.3931	-0.0048
	646	2	13.8016	18.409	4.5958
	647	1	13.8034	18.4066	9.2072
	648	2	13.7931	18.4049	13.791
	649	2	13.7968	18.4042	18.4077
	650	2	13.803	18.3939	22.9931
	651	2	13.8034	18.3935	27.6031
	652	2	13.8082	18.3908	32.195
	653	2	13.8094	18.4087	36.8021
	654	2	13.8039	18.3963	41.4039
	655	1	13.7916	18.3938	46.0077
	656	2	13.805	18.4022	50.5909
	657	2	13.8095	18.4035	55.1987
	658	2	13.8037	18.395	59.8091
	659	1	13.7913	22.9953	0.0056
	660	2	13.7904	22.9953	4.5976
	661	2	13.796	23.0052	9.2089
	662	2	13.8025	22.9992	13.8071
	663	2	13.8098	22.9951	18.4017
	664	1	13.8068	23.0068	23.0086
	665	2	13.7932	22.9987	27.5911
	666	2	13.7944	22.9903	32.1964
	667	2	13.8021	23.0043	36.8062
	668	2	13.7986	22.999	41.3996
	669	1	13.8046	22.9984	45.996
	670	1	13.8093	22.995	50.6032
	671	2	13.7972	23.0083	55.207
	672	2	13.795	22.9975	59.7994
	673	2	13.8054	27.6025	0.0042
	674	1	13.8065	27.6011	4.6028
	675	2	13.791	27.5962	9.2088
	676	1	13.8049	27.6051	13.7901
	677	2	13.8003	27.5977	18.4095
	678	2	13.8029	27.6041	23.008
	679	2	13.7972	27.6045	27.6092
	680	1	13.7998	27.6003	32.1994
	681	1	13.8098	27.5908	36.7984
	682	1	13.8033	27.5942	41.396
	683	2	13.7948	27.5971	45.9915
	684	2	13.8022	27.5984	50.6036
	685	1	13.7917	27.5944	55.2034
	686	2	13.8073	27.5926	59.8065
	687	2	13.8	32.2084	-0.0049
	688	2	13.7984	32.1972	4.6071
	689	2	13.8016	32.2014	9.196
	690	1	13.8049	32.1991	13.8095
	691	2	13.8086	32.1948	18.4063
	692	2	13.7929	32.207	23.0025
	693	2	13.8077	32.2059	27.5971
	694	1	13.8032	32.2014	32.1961
	695	2	13.7951	32.2022	36.8083
	696	1	13.8017	32.1946	41.4036
	697	2	13.8055	32.2067	46.0003
	698	2	13.8066	32.1902	50.5923
	699	2	13.7919	32.199	55.193
	700	1	13.8028	32.2099	59.7905
	701	2	13.7994	36.8017	0.0022
	702	2	13.8071	36.805	4.5933
	703	1	13.8036	36.7993	9.1958
	704	2	13.7984	36.7995	13.8072
	705	2	13.7938	36.8005	18.3945
	706	2	13.8066	36.805	23.0035
	707	1	13.7961	36.7951	27.6038
	708	2	13.8061	36.8032	32.2065
	709	1	13.8092	36.8098	36.802
	710	1	13.7906	36.8008	41.3991
	711	2	13.7968	36.7923	46.0029
	712	1	13.8046	36.806	50.5911
	713	1	13.8004	36.798	55.2067
	714	2	13.796	36.8057	59.8004
	715	1	13.7923	41.4063	-0.0062
	716	1	13.7975	41.4051	4.5947
	717	1	13.8009	41.3974	9.2052
	718	2	13.8095	41.4084	13.8088
	719	2	13.8025	41.3973	18.3999
	720	2	13.804	41.4008	23.0058
	721	2	13.8066	41.3975	27.5944
	722	2	13.8081	41.408	32.2049
	723	2	13.8014	41.4057	36.8077
	724	2	13.8072	41.4026	41.3993
	725	1	13.7944	41.3995	45.9939
	726	1	13.7967	41.3979	50.6068
	727	2	13.7901	41.3924	55.1992
	728	1	13.791	41.4041	59.8024
	729	2	13.8008	45.9918	-0.0011
	730	1	13.7902	46.0074	4.6028
	731	1	13.8078	46.0046	9.2098
	732	2	13.8026	45.9996	13.7989
	733	2	13.8026	46.0065	18.4004
	734	2	13.7913	46.0002	23.0025
	735	2	13.79	45.9915	27.5977
	736	2	13.7956	45.9965	32.1976
	737	2	13.8016	46.005	36.8028
	738	2	13.7987	46.0005	41.4013
	739	2	13.7909	46.0078	46.0023
	740	2	13.8052	45.996	50.6029
	741	2	13.7934	46.005	55.1961
	742	1	13.8085	45.9963	59.8076
	743	2	13.8076	50.6008	-0.0019
	744	2	13.7993	50.5901	4.6062
	745	2	13.8074	50.593	9.2061
	746	1	13.7976	50.5961	13.8051
	747	1	13.7907	50.5954	18.4007
	748	2	13.8094	50.6098	23.0003
	749	1	13.8051	50.5938	27.5965
	750	2	13.7909	50.6022	32.2011
	751	2	13.8082	50.6081	36.8045
	752	2	13.8088	50.5985	41.4005
	753	2	13.8059	50.6074	46.0027
	754	2	13.793	50.6044	50.6032
	755	1	13.8037	50.6091	55.1929
	756	1	13.8036	50.5975	59.7903
	757	2	13.7929	55.21	-0.0019
	758	1	13.7902	55.2	4.5963
	759	2	13.7929	55.2069	9.1994
	760	2	13.793	55.195	13.8037
	761	2	13.7925	55.1909	18.4076
	762	1	13.8064	55.1944	22.9976
	763	2	13.791	55.2007	27.6079
	764	2	13.8032	55.1984	32.201
	765	2	13.7949	55.2021	36.809
	766	2	13.8081	55.2091	41.3986
	767	1	13.7991	55.1902	45.9977
	768	2	13.7993	55.1978	50.5928
	769	1	13.7937	55.1956	55.2012
	770	2	13.7904	55.2043	59.8014
	771	2	13.807	59.8013	-0.0059
	772	2	13.7924	59.8081	4.6091
	773	2	13.8096	59.7974	9.2063
	774	2	13.7931	59.7929	13.7913
	775	2	13.8042	59.7933	18.407
	776	2	13.7985	59.8068	22.9952
	777	2	13.805	59.8034	27.6055
	778	1	13.7962	59.7939	32.2061
	779	2	13.8004	59.7906	36.8019
	780	1	13.7953	59.8097	41.3907
	781	2	13.7987	59.7911	45.9959
	782	1	13.8056	59.7968	50.5903
	783	2	13.8094	59.8025	55.2022
	784	2	13.7979	59.8009	59.8094
	785	2	18.3997	-0.0008	-0.0034
	786	2	18.4091	0.0008	4.6003
	787	2	18.3966	0.001	9.1946
	788	2	18.3958	-0.0082	13.8005
	789	1	18.4097	-0.0041	18.4036
	790	1	18.4043	0.0095	22.9999
	791	1	18.3959	-0.0055	27.6063
	792	2	18.4053	0.0078	32.1952
	793	2	18.3928	0.0088	36.8065
	794	2	18.409	-0.0066	41.4045
	795	2	18.3922	-0.0005	46.0037
	796	2	18.3943	0.0062	50.6061
	797	1	18.4095	-0.005	55.2014
	798	1	18.4013	-0.0095	59.8017
	799	1	18.3917	4.5991	0.0033
	800	2	18.3987	4.6036	4.5991
	801	1	18.4004	4.6048	9.2076
	802	1	18.4072	4.6034	13.8053
	803	1	18.3933	4.595	18.3927
	804	2	18.4068	4.5934	22.9915
	805	1	18.4005	4.6002	27.6024
	806	2	18.3936	4.6049	32.205
	807	2	18.3986	4.5983	36.7921
	808	2	18.392	4.609	41.3987
	809	2	18.3905	4.6046	46.0041
	810	2	18.4056	4.6068	50.6034
	811	1	18.3981	4.5935	55.2004
	812	2	18.4057	4.602	59.8078
	813	1	18.4005	9.2076	-0.0017
	814	2	18.3902	9.1978	4.609
	815	2	18.3945	9.1986	9.2061
	816	1	18.4019	9.2088	13.8009
	817	2	18.3982	9.2023	18.4059
	818	2	18.3946	9.1937	22.9918
	819	2	18.3944	9.206	27.6017
	820	2	18.3961	9.1904	32.1962
	821	1	18.4082	9.1947	36.809
	822	1	18.3966	9.2042	41.3979
	823	2	18.4041	9.2025	45.9901
	824	2	18.3919	9.1936	50.5919
	825	2	18.4048	9.2059	55.1913
	826	2	18.3922	9.206	59.7907
	827	2	18.4037	13.7975	0.005
	828	2	18.4006	13.8007	4.5972
	829	1	18.4079	13.7981	9.2
	830	1	18.3908	13.8009	13.8028
	831	2	18.4008	13.8034	18.4077
	832	2	18.4059	13.7995	23.0062
	833	2	18.4028	13.7953	27.5947
	834	2	18.4073	13.808	32.2058
	835	2	18.3928	13.8002	36.8003
	836	2	18.3925	13.7924	41.4063
	837	2	18.405	13.7908	46.0013
	838	1	18.4066	13.7995	50.6045
	839	2	18.3938	13.8086	55.2031
	840	2	18.4098	13.794	59.7968
	841	2	18.4021	18.404	-0.0049
	842	2	18.392	18.3999	4.6078
	843	2	18.4007	18.4043	9.2022
	844	2	18.3988	18.3944	13.797
	845	2	18.3962	18.3955	18.4093
	846	2	18.3963	18.4086	22.9922
	847	1	18.4008	18.407	27.5974
	848	2	18.4081	18.4077	32.1968
	849	1	18.4061	18.4008	36.8066
	850	2	18.4097	18.3947	41.4024
	851	2	18.4015	18.4027	45.9918
	852	2	18.4045	18.409	50.6002
	853	2	18.4099	18.4038	55.2055
	854	2	18.4039	18.4099	59.8008
	855	1	18.4071	22.9925	0.0067
	856	1	18.4005	22.9964	4.5911
	857	2	18.4073	23.0065	9.2072
	858	1	18.3938	22.9993	13.7924
	859	1	18.4058	23.007	18.3984
	860	1	18.3932	22.9943	22.9951
	861	2	18.4015	23.0035	27.5908
	862	2	18.4026	22.9929	32.197
	863	1	18.3979	22.9956	36.8086
	864	1	18.4072	22.9993	41.3995
	865	2	18.4071	23.0028	46.0039
	866	1	18.4085	23.0071	50.601
	867	2	18.4067	23.0008	55.2064
	868	2	18.3993	22.9931	59.8064
	869	1	18.4004	27.6024	-0.0085
	870	2	18.3974	27.6018	4.5942
	871	2	18.3973	27.5992	9.2002
	872	1	18.3981	27.5987	13.8095
	873	1	18.4053	27.5931	18.4042
	874	1	18.3962	27.5997	23.0023
	875	2	18.4012	27.6039	27.5966
	876	1	18.4017	27.5994	32.1999
	877	1	18.4092	27.5959	36.8003
	878	1	18.3978	27.602	41.3974
	879	2	18.3963	27.5999	45.9967
	880	2	18.3962	27.6078	50.5906
	881	2	18.4063	27.596	55.2097
	882	2	18.3974	27.5958	59.7918
	883	2	18.4048	32.2026	0.0053
	884	2	18.391	32.199	4.6006
	885	1	18.4034	32.1971	9.2097
	886	1	18.4015	32.1903	13.7933
	887	2	18.4073	32.2069	18.3901
	888	2	18.4095	32.1956	23.0066
	889	2	18.4091	32.192	27.6053
	890	1	18.4015	32.2093	32.1925
	891	1	18.3943	32.1969	36.7912
	892	2	18.4088	32.1982	41.3902
	893	1	18.3903	32.2085	46.0006
	894	2	18.3934	32.1918	50.594
	895	2	18.4045	32.207	55.2082
	896	2	18.3983	32.2063	59.7923
	897	2	18.4057	36.7923	0.0035
	898	2	18.4042	36.7945	4.6043
	899	2	18.4058	36.8009	9.2011
	900	2	18.3978	36.7955	13.8044
	901	2	18.3924	36.8007	18.3912
	902	1	18.4039	36.7915	23.0058
	903	1	18.3968	36.8061	27.5974
	904	2	18.3981	36.8086	32.1941
	905	2	18.3975	36.8087	36.8057
	906	2	18.3976	36.8034	41.3984
	907	2	18.41	36.7969	46.0043
	908	2	18.4011	36.8098	50.609
	909	2	18.397	36.8093	55.1925
	910	1	18.4089	36.7908	59.7997
	911	2	18.3941	41.409	0.008
	912	1	18.4055	41.3964	4.6077
	913	2	18.3981	41.3997	9.1998
	914	1	18.3948	41.3989	13.8003
	915	1	18.3933	41.4031	18.3997
	916	1	18.4013	41.3982	23.0086
	917	2	18.394	41.4073	27.5919
	918	1	18.4095	41.3915	32.1917
	919	2	18.4081	41.393	36.8041
	920	1	18.3977	41.4097	41.4066
	921	1	18.4013	41.3901	46.0046
	922	1	18.3922	41.3948	50.5993
	923	2	18.4058	41.4008	55.2075
	924	2	18.3958	41.3921	59.8065
	925	2	18.3954	46.0073	0.0009
	926	2	18.3916	45.9984	4.6009
	927	2	18.3925	46.0023	9.1929
	928	2	18.4017	45.9985	13.7977
	929	1	18.4079	46.0097	18.39
	930	2	18.3993	46.0005	22.9928
	931	2	18.4043	45.9951	27.5959
	932	2	18.4089	46.0041	32.2056
	933	2	18.4052	46.0056	36.803
	934	1	18.3979	46.0023	41.4064
	935	2	18.4034	45.9916	46.0051
	936	2	18.3902	46.0019	50.5951
	937	2	18.3937	45.9961	55.2098
	938	2	18.3962	45.9992	59.7945
	939	1	18.3945	50.5939	0.0058
	940	1	18.3995	50.6062	4.6002
	941	1	18.4058	50.6	9.1998
	942	2	18.3936	50.5967	13.7917
	943	2	18.3923	50.5944	18.401
	944	2	18.4059	50.5952	23.0078
	945	2	18.4094	50.6023	27.5937
	946	2	18.4054	50.6064	32.1966
	947	1	18.3947	50.603	36.8015
	948	1	18.4099	50.6081	41.3901
	949	2	18.3955	50.5919	46.0062
	950	1	18.3905	50.6008	50.5909
	951	2	18.396	50.5921	55.2005
	952	2	18.3917	50.604	59.7956
	953	1	18.3981	55.2091	-0.0001
	954	2	18.3958	55.1984	4.604
	955	2	18.3909	55.2082	9.1902
	956	2	18.397	55.1929	13.8008
	957	1	18.4061	55.2044	18.3975
	958	2	18.3977	55.1916	22.9902
	959	1	18.3944	55.2098	27.5911
	960	2	18.39	55.1965	32.1975
	961	2	18.399	55.1916	36.7998
	962	2	18.4023	55.2036	41.4074
	963	1	18.3943	55.2005	45.993
	964	1	18.4009	55.1917	50.6053
	965	2	18.4013	55.1921	55.2043
	966	1	18.3971	55.209	59.7929
	967	2	18.4046	59.8074	0.0035
	968	2	18.407	59.796	4.6057
	969	1	18.3971	59.7959	9.1909
	970	2	18.4001	59.7987	13.792
	971	1	18.4085	59.795	18.3939
	972	2	18.4028	59.8053	22.9962
	973	1	18.4081	59.7977	27.5989
	974	2	18.4091	59.8063	32.1988
	975	2	18.3977	59.795	36.8063
	976	2	18.3906	59.8076	41.4009
	977	1	18.405	59.7908	46.0081
	978	2	18.3926	59.793	50.5903
	979	2	18.4024	59.8019	55.2073
	980	2	18.3983	59.8011	59.8071
	981	2	23.0084	-0.0079	-0.0043
	982	1	23.0084	0.0047	4.6046
	983	2	22.9947	-0.0039	9.1999
	984	2	23.0096	0.0043	13.8065
	985	2	22.9975	-0.0017	18.3914
	986	1	22.996	-0.0009	23.0046
	987	2	23.0062	0.0063	27.5979
	988	2	22.9974	0.0015	32.203
	989	2	22.9972	0.0069	36.7951
	990	2	23.0066	-0.0091	41.4
	991	2	22.9984	0.0076	45.9939
	992	2	22.991	-0.009	50.5959
	993	2	22.9933	0.0061	55.2071
	994	1	22.9913	0.0054	59.8013
	995	2	22.9955	4.6042	-0.0079
	996	2	22.9959	4.6065	4.6049
	997	1	23.0085	4.5926	9.2073
	998	1	23.0011	4.5974	13.797
	999	2	23.0092	4.6016	18.4092
	1000	2	23.0002	4.6086	22.9969
	1001	2	22.9991	4.6078	27.5923
	1002	1	22.9918	4.6052	32.2018
	1003	2	22.9958	4.605	36.8055