Nickle Copper Simulation

1099 	atoms
0 	bonds
0 	angles
0 	dihedrals
0 	impropers

2	atom types
0	bond types
0	angle types
0	dihedral types
0	improper types

-0.02	27.62	xlo xhi
-0.02	27.62	ylo yhi
-0.02	27.62	zlo zhi

Atoms

	1	2	-0.0074	-0.0062	0.0015
	2	1	-0.0003	-0.0053	4.5941
	3	2	-0.0045	-0.0051	9.1919
	4	2	0.0014	0.0038	13.8091
	5	2	-0.0067	-0.0015	18.3957
	6	2	0.0099	0.0063	23.0093
	7	1	-0.0061	0.0058	27.5979
	8	2	0.0043	4.5999	-0.0042
	9	2	-0.0069	4.5987	4.6023
	10	2	0.0092	4.5968	9.203
	11	2	0.0051	4.5986	13.7911
	12	1	-0.0083	4.5954	18.3933
	13	2	-0.0043	4.5994	22.9983
	14	2	0.0063	4.6079	27.6008
	15	2	-0.0012	9.2091	0.0003
	16	1	0.0033	9.1937	4.607
	17	2	0.0011	9.1908	9.2017
	18	1	-0.0034	9.2025	13.8021
	19	2	-0.0047	9.1968	18.4067
	20	1	0.0075	9.192	23.0047
	21	2	0.0089	9.1929	27.5973
	22	2	0.0019	13.8074	0.0021
	23	1	-0.0087	13.8063	4.5972
	24	2	0.0087	13.8004	9.2045
	25	2	-0.0038	13.8068	13.8096
	26	2	-0.0008	13.8018	18.4097
	27	1	-0.0042	13.7939	23.0084
	28	2	-0.002	13.79	27.5971
	29	1	-0.007	18.4084	0.008
	30	2	0.0001	18.3957	4.6063
	31	1	-0.008	18.3987	9.2029
	32	1	0.0031	18.4074	13.8053
	33	1	-0.0078	18.391	18.4016
	34	2	-0.0045	18.3991	22.9941
	35	2	0.0087	18.408	27.6067
	36	1	0.0082	23.0047	0.0057
	37	1	0.0024	22.9924	4.6034
	38	1	0.0096	23.0048	9.1997
	39	2	0.0015	22.9999	13.7994
	40	2	-0.0076	23.0009	18.3924
	41	1	-0.0045	23.0057	22.992
	42	2	0.0083	23.0076	27.602
	43	2	-0.0031	27.6023	-0.0064
	44	1	-0.0068	27.6057	4.6029
	45	2	-0.0059	27.5995	9.1948
	46	1	0.001	27.6042	13.7989
	47	2	0.0033	27.5995	18.393
	48	2	-0.0073	27.5968	23.0012
	49	2	0.0054	27.5978	27.6088
	50	2	4.602	-0.0015	0.0057
	51	2	4.6003	0.0089	4.5947
	52	2	4.6055	0.0072	9.1996
	53	2	4.6092	0.0046	13.8034
	54	1	4.5933	0.0061	18.399
	55	2	4.6043	0.0067	23.0037
	56	1	4.6081	-0.0023	27.6048
	57	1	4.6066	4.6066	-0.0099
	58	2	4.5973	4.6067	4.5905
	59	2	4.5914	4.6006	9.2009
	60	1	4.5908	4.6076	13.8044
	61	2	4.6039	4.5961	18.4029
	62	1	4.6036	4.6054	23.0019
	63	2	4.6074	4.6006	27.6036
	64	2	4.6084	9.1966	0.0034
	65	1	4.6041	9.1946	4.6034
	66	1	4.6051	9.2044	9.2035
	67	2	4.5995	9.205	13.8033
	68	1	4.5923	9.1991	18.395
	69	2	4.607	9.207	22.9924
	70	2	4.5963	9.1946	27.6037
	71	2	4.603	13.7903	-0.0037
	72	2	4.6068	13.7935	4.5917
	73	1	4.5945	13.8026	9.2078
	74	2	4.5917	13.7959	13.8058
	75	2	4.6032	13.7909	18.394
	76	2	4.5985	13.8091	23.0009
	77	1	4.6001	13.7973	27.6031
	78	2	4.6075	18.3985	0.0028
	79	1	4.5999	18.3953	4.5925
	80	2	4.6098	18.3965	9.1978
	81	2	4.5938	18.3939	13.7949
	82	2	4.6004	18.3978	18.3944
	83	2	4.6006	18.4024	22.9916
	84	1	4.6022	18.4023	27.5983
	85	1	4.6066	23.0029	0.0064
	86	2	4.5964	23.0095	4.5914
	87	2	4.5959	22.9964	9.1947
	88	1	4.5939	22.9904	13.7922
	89	2	4.5986	22.9965	18.4076
	90	1	4.6053	22.9988	22.9993
	91	2	4.5986	22.9995	27.595
	92	2	4.6086	27.5942	-0.0033
	93	1	4.6045	27.6073	4.6075
	94	1	4.6069	27.5954	9.1984
	95	2	4.6034	27.5973	13.7982
	96	1	4.6036	27.605	18.405
	97	2	4.6066	27.5996	23.007
	98	2	4.5977	27.5984	27.6043
	99	1	9.1905	-0.0057	0.0096
	100	1	9.2023	0.0003	4.6009
	101	2	9.1948	-0.0007	9.2065
	102	2	9.1926	0.0064	13.8053
	103	2	9.2061	0.0098	18.3998
	104	2	9.2016	-0.0035	23.0067
	105	2	9.197	-0.004	27.6084
	106	1	9.1997	4.5947	-0.0006
	107	1	9.1983	4.5966	4.602
	108	2	9.1919	4.6037	9.1997
	109	2	9.2072	4.6003	13.791
	110	1	9.1986	4.5994	18.4076
	111	2	9.2091	4.5917	22.996
	112	2	9.2048	4.598	27.5988
	113	2	9.2096	9.1933	-0.0084
	114	1	9.1923	9.1908	4.5934
	115	2	9.2029	9.2002	9.2084
	116	2	9.2039	9.1925	13.8065
	117	2	9.194	9.2069	18.392
	118	2	9.195	9.202	22.9912
	119	1	9.1946	9.2043	27.591
	120	1	9.2033	13.8026	0.0095
	121	1	9.2055	13.8023	4.5981
	122	2	9.1956	13.7951	9.2078
	123	2	9.2047	13.8041	13.7978
	124	2	9.1926	13.7999	18.407
	125	2	9.196	13.7971	23.0032
	126	2	9.1923	13.7985	27.5957
	127	1	9.2007	18.4044	0.0
	128	2	9.2018	18.3907	4.6035
	129	1	9.2009	18.3917	9.2062
	130	2	9.197	18.4049	13.7983
	131	1	9.2087	18.4027	18.3961
	132	2	9.1909	18.3915	22.9952
	133	2	9.1962	18.3916	27.5903
	134	2	9.2087	23.0012	0.0069
	135	2	9.1923	22.9979	4.5932
	136	2	9.2026	23.0043	9.1924
	137	2	9.202	22.9952	13.7904
	138	1	9.1976	23.0022	18.4003
	139	1	9.1947	22.9979	22.9963
	140	1	9.2023	23.0034	27.6082
	141	1	9.2096	27.5927	-0.0033
	142	2	9.1905	27.6039	4.5907
	143	1	9.2065	27.5902	9.2001
	144	2	9.2073	27.6099	13.7988
	145	2	9.1994	27.6087	18.3923
	146	2	9.2042	27.5917	22.9939
	147	2	9.1972	27.5961	27.5973
	148	2	13.8076	0.0075	0.0089
	149	2	13.803	0.0072	4.5962
	150	1	13.7982	0.0057	9.2049
	151	2	13.8039	-0.0012	13.7931
	152	1	13.7955	-0.0072	18.3959
	153	2	13.7977	0.0035	23.0059
	154	2	13.7979	-0.01	27.6016
	155	1	13.8072	4.6063	-0.0091
	156	2	13.7921	4.6063	4.5965
	157	2	13.8056	4.6074	9.2071
	158	2	13.794	4.5933	13.7943
	159	2	13.8092	4.6071	18.4092
	160	2	13.8003	4.5926	22.9962
	161	2	13.7952	4.6005	27.5977
	162	2	13.8052	9.196	-0.0055
	163	2	13.791	9.207	4.5989
	164	1	13.806	9.1962	9.1913
	165	2	13.7914	9.1931	13.7998
	166	2	13.807	9.2006	18.396
	167	2	13.7902	9.1908	23.0019
	168	2	13.8065	9.2008	27.5921
	169	2	13.8022	13.7994	0.0071
	170	2	13.8096	13.7963	4.5905
	171	2	13.8079	13.7942	9.2061
	172	2	13.8032	13.7926	13.798
	173	1	13.7943	13.794	18.4039
	174	1	13.7929	13.8067	22.9964
	175	2	13.8032	13.8053	27.5953
	176	1	13.8071	18.3929	0.0046
	177	2	13.802	18.4047	4.5941
	178	2	13.8037	18.3912	9.2074
	179	1	13.8051	18.3973	13.8027
	180	1	13.7962	18.3965	18.4011
	181	2	13.7933	18.3983	22.9944
	182	2	13.8081	18.4037	27.5911
	183	2	13.8026	22.9952	-0.0044
	184	1	13.7938	22.9932	4.6035
	185	2	13.791	22.9913	9.2058
	186	1	13.8065	23.0095	13.8015
	187	2	13.8021	23.0091	18.3939
	188	2	13.8023	23.0036	23.0032
	189	1	13.7957	22.9907	27.6009
	190	2	13.7946	27.6096	-0.0097
	191	2	13.8058	27.6035	4.5914
	192	2	13.8003	27.594	9.1942
	193	2	13.799	27.5993	13.791
	194	2	13.8084	27.6029	18.3993
	195	2	13.7949	27.6052	23.0063
	196	1	13.8076	27.604	27.5901
	197	2	18.4066	-0.0099	-0.01
	198	2	18.4026	-0.0001	4.5961
	199	2	18.4027	0.0057	9.1923
	200	2	18.3912	0.0048	13.7954
	201	1	18.3978	0.0005	18.398
	202	2	18.4	0.0077	22.9987
	203	2	18.4057	0.0013	27.6048
	204	2	18.4016	4.5928	0.0033
	205	2	18.4062	4.5987	4.5926
	206	2	18.4072	4.5929	9.2094
	207	2	18.4084	4.6053	13.7927
	208	2	18.3982	4.5982	18.4009
	209	1	18.4036	4.6098	22.9986
	210	2	18.4034	4.6011	27.5916
	211	1	18.4032	9.2089	-0.0057
	212	1	18.4069	9.2024	4.6003
	213	1	18.3977	9.1923	9.2089
	214	2	18.395	9.1937	13.7905
	215	2	18.4092	9.2019	18.4043
	216	2	18.4024	9.2017	22.9996
	217	2	18.3959	9.1967	27.5988
	218	2	18.4004	13.8058	-0.0023
	219	2	18.3953	13.7908	4.6061
	220	2	18.4056	13.7926	9.1948
	221	2	18.4051	13.8065	13.7959
	222	2	18.4001	13.7997	18.3978
	223	2	18.3996	13.8023	23.0
	224	1	18.4085	13.8049	27.5938
	225	1	18.3944	18.4	-0.0086
	226	1	18.4099	18.3969	4.5914
	227	2	18.4006	18.4034	9.2051
	228	2	18.4008	18.404	13.7967
	229	1	18.4005	18.4072	18.3977
	230	2	18.3934	18.3947	23.0001
	231	2	18.4084	18.3917	27.5937
	232	1	18.3976	23.0079	-0.002
	233	1	18.4023	23.0038	4.5963
	234	2	18.4075	23.0092	9.2084
	235	2	18.4011	23.0017	13.7964
	236	1	18.4053	22.9947	18.395
	237	2	18.3946	23.0007	22.9907
	238	2	18.4032	22.9968	27.5905
	239	2	18.3999	27.5918	0.0022
	240	2	18.4031	27.5905	4.5936
	241	1	18.4088	27.5915	9.1934
	242	1	18.3985	27.5928	13.8018
	243	2	18.398	27.5993	18.3915
	244	1	18.3959	27.6002	23.008
	245	2	18.3999	27.6003	27.5968
	246	1	23.002	0.0032	-0.0025
	247	1	22.994	0.0071	4.5909
	248	2	22.9905	0.0055	9.1955
	249	2	23.0096	0.0055	13.7939
	250	2	23.0068	0.0021	18.4056
	251	2	23.0028	-0.0015	23.0001
	252	2	23.0069	0.0038	27.6059
	253	2	22.9973	4.5934	0.0004
	254	1	23.0059	4.6046	4.5982
	255	2	23.003	4.6087	9.2038
	256	2	23.0074	4.6036	13.7936
	257	1	23.0001	4.6045	18.4062
	258	2	23.0038	4.5909	23.0031
	259	1	22.9917	4.5943	27.5937
	260	2	22.9972	9.1955	0.0021
	261	2	22.996	9.2087	4.5902
	262	1	22.9935	9.2035	9.205
	263	2	23.0072	9.1989	13.8008
	264	1	22.9978	9.193	18.4089
	265	2	22.9963	9.1984	23.0075
	266	2	22.9922	9.1947	27.5902
	267	2	22.9945	13.7968	-0.0076
	268	2	23.0095	13.8006	4.5938
	269	2	23.0083	13.7936	9.2087
	270	2	23.0043	13.8038	13.7906
	271	1	22.9922	13.7982	18.4022
	272	2	22.9968	13.8056	22.9993
	273	2	23.0089	13.7978	27.5981
	274	2	22.99	18.3939	-0.0088
	275	1	22.9987	18.3947	4.6079
	276	2	22.9948	18.4064	9.1915
	277	2	22.9901	18.3999	13.7944
	278	2	22.9913	18.3926	18.3948
	279	1	22.9988	18.3988	22.9924
	280	2	22.9904	18.4003	27.6007
	281	2	23.0096	22.9967	0.0091
	282	2	22.9908	23.0087	4.5959
	283	1	23.0047	23.0013	9.202
	284	2	22.991	23.0041	13.7919
	285	1	22.998	22.9988	18.4048
	286	2	23.0033	23.0092	23.0027
	287	2	22.9921	23.005	27.5962
	288	2	22.9919	27.6049	0.0036
	289	2	22.9901	27.5997	4.594
	290	2	22.9943	27.598	9.2039
	291	1	22.9909	27.6039	13.8055
	292	2	23.0006	27.6035	18.3975
	293	1	22.9988	27.5946	22.9996
	294	1	23.0053	27.5922	27.6094
	295	2	27.5986	0.0007	-0.0008
	296	2	27.6023	-0.0021	4.596
	297	2	27.5981	0.0059	9.2098
	298	1	27.5921	0.0005	13.8075
	299	2	27.6076	0.0018	18.3976
	300	1	27.5934	0.0023	23.0017
	301	1	27.6017	-0.0072	27.5961
	302	2	27.5961	4.6078	0.007
	303	2	27.6063	4.6062	4.5968
	304	1	27.6018	4.6068	9.2097
	305	2	27.5927	4.5986	13.7934
	306	2	27.5977	4.602	18.4004
	307	2	27.5939	4.6046	23.0066
	308	2	27.6072	4.5932	27.5991
	309	2	27.6064	9.1961	-0.0062
	310	1	27.5928	9.1982	4.5955
	311	2	27.6002	9.203	9.1935
	312	1	27.6056	9.2063	13.802
	313	2	27.6052	9.2047	18.3961
	314	1	27.5999	9.1995	23.0057
	315	2	27.5935	9.2022	27.5967
	316	1	27.5907	13.7934	0.004
	317	2	27.6004	13.7974	4.6093
	318	1	27.6007	13.7955	9.1973
	319	2	27.5954	13.794	13.795
	320	2	27.5915	13.8027	18.4082
	321	2	27.5965	13.8063	22.997
	322	1	27.6018	13.8079	27.6047
	323	1	27.5991	18.41	-0.0035
	324	2	27.5955	18.409	4.6028
	325	2	27.6007	18.3999	9.2005
	326	2	27.6098	18.3984	13.8024
	327	2	27.5968	18.3903	18.3987
	328	2	27.5967	18.3959	22.9912
	329	2	27.6011	18.4037	27.5963
	330	1	27.6049	23.0072	-0.0088
	331	2	27.6091	23.0076	4.5999
	332	2	27.5964	22.9918	9.1996
	333	1	27.5968	22.9937	13.7936
	334	2	27.6071	22.9965	18.4054
	335	2	27.6019	22.9922	22.9993
	336	2	27.6049	23.0071	27.5978
	337	2	27.594	27.603	0.0067
	338	2	27.6058	27.5916	4.5903
	339	2	27.6055	27.5966	9.1953
	340	1	27.5979	27.6	13.8047
	341	2	27.6056	27.6054	18.4032
	342	1	27.6002	27.6025	23.005
	343	2	27.5912	27.6062	27.6061
	344	2	2.3087	2.2989	-0.0007
	345	1	2.3025	2.3099	4.6057
	346	2	2.3076	2.2963	9.1948
	347	2	2.2961	2.304	13.7991
	348	2	2.2995	2.3052	18.3977
	349	1	2.2961	2.2982	23.0042
	350	2	2.3091	2.3055	27.6052
	351	2	2.3056	6.8963	-0.008
	352	2	2.304	6.9038	4.6088
	353	2	2.309	6.8935	9.1924
	354	2	2.3048	6.9061	13.7925
	355	1	2.3024	6.8914	18.4081
	356	2	2.3035	6.909	23.0022
	357	1	2.3007	6.8956	27.6095
	358	2	2.309	11.4911	0.0099
	359	1	2.303	11.5006	4.5959
	360	2	2.2959	11.5011	9.2059
	361	2	2.3025	11.5003	13.793
	362	2	2.2924	11.4901	18.3965
	363	1	2.2988	11.5029	22.9935
	364	2	2.2991	11.5047	27.5924
	365	1	2.3075	16.1005	0.0017
	366	2	2.2915	16.0931	4.5965
	367	2	2.3041	16.1054	9.2088
	368	2	2.3096	16.1012	13.7911
	369	1	2.3004	16.0988	18.3993
	370	2	2.2987	16.0938	22.9942
	371	1	2.3024	16.1003	27.5956
	372	2	2.2924	20.7085	-0.0063
	373	2	2.2951	20.6993	4.6038
	374	2	2.2971	20.6928	9.2028
	375	2	2.2965	20.7042	13.8053
	376	2	2.3059	20.6977	18.4028
	377	1	2.2961	20.7052	23.007
	378	2	2.3032	20.6968	27.5902
	379	2	2.292	25.3088	0.007
	380	2	2.2959	25.2925	4.5984
	381	2	2.2942	25.2978	9.2067
	382	2	2.2953	25.2959	13.7992
	383	1	2.3049	25.3	18.4004
	384	2	2.2906	25.3044	22.9975
	385	1	2.2936	25.3013	27.5963
	386	2	6.9015	2.297	0.003
	387	1	6.8922	2.3001	4.5928
	388	2	6.8981	2.2964	9.1972
	389	1	6.9089	2.2919	13.7989
	390	2	6.9065	2.2905	18.4074
	391	1	6.9051	2.3058	23.0028
	392	2	6.9075	2.2962	27.5966
	393	1	6.9029	6.8991	-0.0019
	394	2	6.8946	6.891	4.609
	395	2	6.9026	6.8932	9.1994
	396	1	6.9091	6.8976	13.8094
	397	1	6.9085	6.8945	18.39
	398	2	6.905	6.8927	22.9941
	399	1	6.8985	6.8984	27.605
	400	1	6.8939	11.4909	-0.0006
	401	1	6.8906	11.4943	4.5912
	402	2	6.9026	11.497	9.2099
	403	2	6.8962	11.5043	13.8011
	404	2	6.9061	11.505	18.3993
	405	1	6.9002	11.4926	22.997
	406	2	6.8996	11.4989	27.596
	407	2	6.9032	16.1024	-0.0065
	408	2	6.906	16.1096	4.5984
	409	2	6.9028	16.093	9.1916
	410	2	6.9061	16.1072	13.8056
	411	2	6.8935	16.0921	18.4009
	412	2	6.9086	16.0975	22.9933
	413	2	6.8979	16.1007	27.6006
	414	2	6.9053	20.694	-0.0011
	415	2	6.8975	20.6961	4.5945
	416	2	6.9085	20.7052	9.1953
	417	2	6.9092	20.7058	13.8053
	418	2	6.9067	20.7006	18.3986
	419	2	6.9051	20.6964	22.9938
	420	2	6.9084	20.7077	27.5982
	421	1	6.8957	25.2989	0.0095
	422	2	6.9026	25.302	4.609
	423	2	6.9016	25.3016	9.1907
	424	2	6.8916	25.293	13.7961
	425	1	6.8991	25.3014	18.39
	426	1	6.8913	25.2935	22.9965
	427	2	6.9027	25.2906	27.6019
	428	2	11.4939	2.3026	-0.0062
	429	2	11.4987	2.3058	4.5969
	430	2	11.4913	2.2904	9.1905
	431	1	11.501	2.2933	13.7962
	432	2	11.4983	2.2985	18.3941
	433	2	11.4928	2.304	23.0005
	434	1	11.507	2.3035	27.6088
	435	2	11.5068	6.89	-0.0001
	436	2	11.4941	6.8991	4.6091
	437	1	11.5038	6.8997	9.2022
	438	2	11.4973	6.8908	13.7918
	439	1	11.5013	6.9039	18.4016
	440	2	11.4992	6.9079	23.0042
	441	2	11.4906	6.8924	27.5902
	442	2	11.5036	11.5038	0.0076
	443	2	11.5094	11.4914	4.5944
	444	2	11.5061	11.5052	9.1992
	445	1	11.4936	11.5089	13.8034
	446	2	11.4936	11.5024	18.4012
	447	2	11.4922	11.5087	22.9981
	448	2	11.4969	11.5084	27.6074
	449	2	11.5083	16.1075	-0.0034
	450	1	11.4916	16.0923	4.5974
	451	2	11.5077	16.1098	9.2055
	452	2	11.5043	16.106	13.7946
	453	1	11.5079	16.097	18.3955
	454	2	11.5028	16.0919	23.0037
	455	2	11.4948	16.0956	27.5987
	456	2	11.4921	20.6919	0.0045
	457	2	11.5029	20.705	4.6054
	458	2	11.4936	20.6942	9.1969
	459	1	11.4983	20.6936	13.7988
	460	1	11.4903	20.7015	18.4064
	461	2	11.5057	20.6989	23.0072
	462	2	11.5031	20.7089	27.6059
	463	2	11.4975	25.3012	0.0036
	464	1	11.4947	25.3013	4.5956
	465	2	11.5012	25.3041	9.207
	466	2	11.4982	25.2957	13.7922
	467	2	11.4921	25.2969	18.4026
	468	2	11.5011	25.291	23.0081
	469	2	11.5045	25.3011	27.607
	470	1	16.1032	2.3078	-0.0083
	471	2	16.093	2.3025	4.6015
	472	2	16.0965	2.2968	9.2072
	473	2	16.098	2.2936	13.792
	474	2	16.1078	2.2952	18.4007
	475	1	16.0906	2.2907	22.9953
	476	2	16.0963	2.3021	27.608
	477	1	16.1065	6.9038	-0.006
	478	2	16.0965	6.8922	4.602
	479	1	16.1012	6.9011	9.1922
	480	2	16.0915	6.8989	13.803
	481	2	16.0986	6.9026	18.3957
	482	2	16.1088	6.8962	23.0077
	483	2	16.0957	6.8992	27.5964
	484	2	16.0977	11.5006	0.0067
	485	2	16.1091	11.4944	4.5989
	486	2	16.0978	11.4956	9.1952
	487	2	16.0912	11.5016	13.7906
	488	1	16.1035	11.5022	18.4081
	489	2	16.0906	11.491	22.9978
	490	2	16.0966	11.5096	27.5991
	491	1	16.0997	16.1045	0.0092
	492	2	16.0962	16.1006	4.5967
	493	2	16.0973	16.1003	9.1975
	494	2	16.1041	16.0954	13.7909
	495	2	16.099	16.0932	18.3931
	496	2	16.1067	16.0943	22.998
	497	2	16.1018	16.091	27.5957
	498	2	16.0917	20.6905	-0.0065
	499	1	16.0901	20.7096	4.6003
	500	1	16.1009	20.7057	9.199
	501	1	16.1006	20.7076	13.805
	502	2	16.0937	20.6925	18.3936
	503	1	16.0986	20.6928	22.9946
	504	2	16.0946	20.6902	27.6039
	505	2	16.0997	25.2966	0.0024
	506	2	16.1009	25.3083	4.5962
	507	2	16.1008	25.3012	9.2028
	508	2	16.0988	25.3033	13.8083
	509	1	16.1045	25.3062	18.3923
	510	1	16.1021	25.2986	23.0035
	511	2	16.1078	25.3062	27.6024
	512	2	20.709	2.2949	-0.0097
	513	1	20.6989	2.3046	4.597
	514	1	20.7081	2.2962	9.2035
	515	1	20.6958	2.2916	13.8026
	516	1	20.7085	2.298	18.3973
	517	2	20.6937	2.2938	23.0016
	518	2	20.6968	2.3034	27.5956
	519	2	20.6924	6.8909	0.0094
	520	2	20.6918	6.9007	4.5916
	521	2	20.6995	6.8961	9.1954
	522	2	20.702	6.8967	13.8095
	523	1	20.6907	6.9095	18.3915
	524	2	20.6933	6.9022	23.0051
	525	2	20.6989	6.8915	27.5909
	526	2	20.7075	11.4995	0.0064
	527	2	20.7007	11.5035	4.5924
	528	2	20.7021	11.5052	9.1997
	529	1	20.6919	11.4971	13.8065
	530	2	20.6966	11.501	18.408
	531	2	20.7047	11.4943	23.0059
	532	2	20.7051	11.5053	27.5971
	533	2	20.7068	16.1014	0.0068
	534	2	20.7037	16.0948	4.5922
	535	2	20.6936	16.1019	9.1921
	536	2	20.6974	16.1046	13.808
	537	1	20.6998	16.1062	18.3923
	538	2	20.6968	16.1074	22.9994
	539	2	20.6945	16.0938	27.6075
	540	1	20.705	20.7043	0.0079
	541	2	20.6947	20.7039	4.5973
	542	2	20.7072	20.7004	9.209
	543	2	20.6951	20.6911	13.8044
	544	2	20.6955	20.7069	18.4093
	545	2	20.7011	20.7029	22.9993
	546	2	20.6983	20.7038	27.5957
	547	2	20.7066	25.3031	0.0091
	548	2	20.7099	25.2945	4.5992
	549	2	20.6949	25.306	9.206
	550	2	20.6906	25.2939	13.796
	551	2	20.6948	25.2948	18.4099
	552	2	20.6977	25.3077	23.0081
	553	1	20.7048	25.291	27.5958
	554	2	25.3099	2.3098	-0.0092
	555	1	25.3001	2.3026	4.6012
	556	1	25.2997	2.3035	9.2049
	557	1	25.3006	2.2993	13.796
	558	2	25.2958	2.3087	18.4056
	559	2	25.3042	2.3015	22.9915
	560	1	25.3068	2.3038	27.5959
	561	2	25.2941	6.8902	-0.0036
	562	2	25.2991	6.9016	4.5991
	563	2	25.2967	6.9054	9.1925
	564	1	25.2955	6.8975	13.7933
	565	2	25.2953	6.9058	18.3999
	566	2	25.3036	6.9052	22.9961
	567	2	25.295	6.9011	27.5902
	568	2	25.2999	11.5045	0.0095
	569	1	25.2933	11.5053	4.6083
	570	2	25.3091	11.5072	9.2024
	571	1	25.298	11.4971	13.8095
	572	2	25.2934	11.4946	18.3905
	573	2	25.3059	11.4965	22.9916
	574	2	25.2969	11.5022	27.607
	575	2	25.295	16.104	-0.0051
	576	1	25.309	16.1059	4.5971
	577	2	25.2921	16.1088	9.1919
	578	2	25.2999	16.1035	13.7955
	579	2	25.2965	16.0906	18.395
	580	2	25.2933	16.1047	22.9933
	581	2	25.2972	16.0986	27.6016
	582	2	25.306	20.6987	-0.0042
	583	2	25.3037	20.7078	4.6006
	584	2	25.3038	20.6997	9.1961
	585	2	25.2985	20.7064	13.799
	586	1	25.2949	20.708	18.3977
	587	2	25.2923	20.6963	22.9956
	588	2	25.3044	20.7087	27.5936
	589	2	25.3044	25.2919	0.0047
	590	1	25.296	25.2947	4.5968
	591	1	25.2919	25.2911	9.21
	592	1	25.3078	25.3079	13.7953
	593	2	25.3036	25.3097	18.3919
	594	2	25.297	25.2947	23.0034
	595	2	25.3085	25.2982	27.5911
	596	2	2.3016	0.0021	2.3076
	597	2	2.3017	0.0074	6.8995
	598	2	2.3026	-0.0024	11.5067
	599	2	2.2957	0.0043	16.1045
	600	2	2.3022	-0.0016	20.6979
	601	2	2.2941	0.0066	25.2989
	602	2	2.2931	4.6021	2.3066
	603	1	2.2955	4.6067	6.8968
	604	2	2.3042	4.593	11.5017
	605	2	2.3004	4.6075	16.0904
	606	1	2.3094	4.5924	20.7085
	607	1	2.3079	4.61	25.3093
	608	2	2.3016	9.1906	2.299
	609	2	2.292	9.207	6.8976
	610	1	2.2977	9.2007	11.4927
	611	2	2.3037	9.1994	16.1063
	612	2	2.292	9.1956	20.6933
	613	1	2.3044	9.2031	25.2963
	614	1	2.2971	13.7922	2.2923
	615	2	2.3001	13.806	6.8969
	616	2	2.2992	13.7911	11.4933
	617	2	2.2942	13.7971	16.1083
	618	2	2.2988	13.8061	20.6906
	619	2	2.294	13.8065	25.3056
	620	2	2.3044	18.4061	2.3035
	621	2	2.2923	18.4035	6.9061
	622	2	2.2991	18.4029	11.507
	623	1	2.3006	18.4091	16.1039
	624	2	2.2996	18.3964	20.7096
	625	1	2.3076	18.401	25.2906
	626	2	2.2983	22.9944	2.2979
	627	1	2.3021	22.994	6.906
	628	1	2.3028	23.0028	11.5082
	629	1	2.3039	22.9952	16.0964
	630	2	2.2905	22.9934	20.6968
	631	2	2.2997	22.9987	25.2944
	632	1	2.3061	27.5925	2.3048
	633	2	2.296	27.5934	6.9051
	634	2	2.2916	27.6073	11.4962
	635	2	2.3004	27.6023	16.1073
	636	2	2.3026	27.5981	20.7017
	637	2	2.2921	27.6057	25.2969
	638	1	6.8962	0.0037	2.2913
	639	1	6.909	0.0089	6.8979
	640	2	6.9074	0.0029	11.5005
	641	2	6.8964	-0.0044	16.1089
	642	1	6.9033	-0.0059	20.6934
	643	1	6.8991	-0.0034	25.2982
	644	2	6.8921	4.6064	2.2959
	645	1	6.8944	4.5987	6.9079
	646	2	6.8974	4.6042	11.492
	647	2	6.9034	4.5981	16.097
	648	2	6.8918	4.6031	20.699
	649	2	6.9036	4.6022	25.2997
	650	1	6.8916	9.194	2.3035
	651	2	6.9096	9.1975	6.8982
	652	2	6.9096	9.2024	11.5032
	653	2	6.8946	9.2057	16.1089
	654	2	6.9032	9.1961	20.6997
	655	2	6.9016	9.1989	25.2936
	656	2	6.909	13.795	2.3047
	657	2	6.8921	13.7976	6.8927
	658	1	6.9035	13.804	11.4974
	659	1	6.9047	13.8072	16.1085
	660	2	6.8969	13.8075	20.71
	661	2	6.8966	13.8062	25.2911
	662	2	6.9045	18.4008	2.292
	663	1	6.9013	18.4001	6.8988
	664	2	6.8979	18.3993	11.4944
	665	1	6.8903	18.4091	16.0991
	666	1	6.906	18.392	20.7042
	667	2	6.8975	18.4019	25.3053
	668	2	6.9092	23.004	2.3007
	669	1	6.9073	22.9976	6.8964
	670	2	6.8952	23.0055	11.4934
	671	2	6.89	22.9982	16.1021
	672	2	6.8933	23.0093	20.7017
	673	2	6.896	23.0089	25.2903
	674	2	6.8957	27.603	2.3048
	675	1	6.8932	27.6059	6.9051
	676	2	6.8991	27.6041	11.4984
	677	2	6.8997	27.6086	16.0941
	678	2	6.8975	27.6055	20.7073
	679	1	6.8954	27.6041	25.2988
	680	2	11.4905	-0.0023	2.3065
	681	2	11.5007	-0.001	6.9098
	682	2	11.4997	-0.0038	11.4932
	683	2	11.5067	0.0025	16.0917
	684	2	11.5055	-0.0073	20.699
	685	2	11.5092	0.0063	25.2957
	686	2	11.5059	4.6003	2.2995
	687	1	11.5077	4.602	6.8922
	688	2	11.5014	4.5963	11.5098
	689	1	11.5031	4.6018	16.1008
	690	2	11.5096	4.5978	20.6951
	691	2	11.493	4.5925	25.3086
	692	2	11.5046	9.195	2.2912
	693	2	11.4957	9.199	6.9032
	694	2	11.5053	9.1912	11.5069
	695	2	11.495	9.2019	16.1012
	696	2	11.5054	9.1926	20.6956
	697	2	11.4975	9.2058	25.3079
	698	1	11.4954	13.7986	2.3045
	699	1	11.4917	13.7969	6.9006
	700	1	11.4999	13.7951	11.5036
	701	1	11.5071	13.7997	16.1084
	702	2	11.5043	13.8055	20.7093
	703	1	11.5039	13.8071	25.3001
	704	2	11.5065	18.397	2.2975
	705	2	11.4994	18.4007	6.9047
	706	1	11.4999	18.3906	11.4927
	707	2	11.5094	18.3918	16.1093
	708	2	11.5048	18.4017	20.7023
	709	2	11.4998	18.3938	25.3079
	710	2	11.4904	22.9916	2.3014
	711	1	11.5088	22.993	6.9048
	712	2	11.5089	23.0001	11.5004
	713	2	11.4925	23.0087	16.1079
	714	2	11.4973	22.9962	20.7015
	715	2	11.5019	22.9992	25.2929
	716	2	11.5076	27.6088	2.2961
	717	2	11.5035	27.5993	6.8929
	718	2	11.496	27.6024	11.4912
	719	2	11.5088	27.599	16.0985
	720	2	11.4924	27.6013	20.6955
	721	2	11.4964	27.6012	25.3056
	722	1	16.0923	0.0064	2.3052
	723	2	16.0939	-0.0097	6.9094
	724	1	16.1	0.0013	11.4932
	725	2	16.0927	-0.0076	16.0929
	726	2	16.1032	-0.0077	20.7057
	727	2	16.0994	0.0013	25.2936
	728	2	16.0949	4.6095	2.2905
	729	2	16.0982	4.6039	6.8959
	730	2	16.1006	4.6076	11.5053
	731	2	16.0992	4.5933	16.1021
	732	2	16.0992	4.6009	20.7093
	733	2	16.0923	4.6027	25.2905
	734	2	16.103	9.2035	2.2951
	735	2	16.1081	9.1958	6.9068
	736	2	16.104	9.2031	11.4989
	737	2	16.0926	9.197	16.1015
	738	2	16.0927	9.2093	20.7093
	739	2	16.1069	9.1956	25.309
	740	2	16.108	13.7959	2.2946
	741	2	16.1035	13.8081	6.9045
	742	2	16.0918	13.8041	11.5025
	743	2	16.0925	13.7935	16.1086
	744	1	16.1099	13.8017	20.7098
	745	2	16.1049	13.7997	25.3019
	746	1	16.095	18.4031	2.3076
	747	2	16.096	18.4023	6.9091
	748	2	16.1096	18.3928	11.5002
	749	2	16.0998	18.3983	16.0997
	750	2	16.1035	18.4046	20.6993
	751	2	16.0935	18.3979	25.303
	752	2	16.1009	23.0022	2.3011
	753	1	16.0927	23.0039	6.8937
	754	2	16.0919	22.993	11.4936
	755	2	16.1031	23.0082	16.1096
	756	2	16.091	23.0051	20.7097
	757	1	16.0941	23.0049	25.292
	758	2	16.0942	27.596	2.2967
	759	2	16.0981	27.5927	6.9011
	760	1	16.1056	27.5953	11.4944
	761	2	16.0999	27.6016	16.0977
	762	2	16.0967	27.6002	20.6918
	763	1	16.107	27.6099	25.2965
	764	1	20.6916	-0.0021	2.3086
	765	2	20.7018	0.0082	6.8931
	766	1	20.6946	0.0014	11.4977
	767	1	20.7066	-0.0045	16.0954
	768	2	20.6996	-0.0099	20.7065
	769	2	20.6945	0.0075	25.2977
	770	1	20.7077	4.5974	2.3044
	771	1	20.7008	4.6067	6.8929
	772	1	20.7022	4.5918	11.4997
	773	2	20.6966	4.6082	16.107
	774	1	20.6948	4.5901	20.6933
	775	2	20.6971	4.5939	25.2959
	776	2	20.6976	9.2087	2.2939
	777	2	20.707	9.199	6.8972
	778	1	20.7076	9.202	11.4917
	779	2	20.6987	9.1936	16.0986
	780	2	20.7063	9.1994	20.6982
	781	2	20.6904	9.1938	25.2972
	782	2	20.6915	13.8067	2.2922
	783	2	20.7082	13.8044	6.9044
	784	2	20.6986	13.8077	11.5054
	785	2	20.7012	13.7929	16.1074
	786	2	20.7091	13.8029	20.7071
	787	2	20.7039	13.7958	25.2904
	788	1	20.6937	18.4008	2.3007
	789	2	20.708	18.4071	6.8934
	790	2	20.7049	18.4003	11.4918
	791	2	20.6976	18.4094	16.1026
	792	2	20.7024	18.4011	20.6912
	793	2	20.7017	18.4037	25.3055
	794	1	20.7033	23.0015	2.2943
	795	2	20.7057	22.9961	6.8921
	796	2	20.6942	22.9965	11.5047
	797	2	20.7032	22.9946	16.1052
	798	1	20.7024	22.9942	20.703
	799	2	20.6949	23.0071	25.2978
	800	1	20.696	27.6038	2.296
	801	1	20.6988	27.6085	6.8935
	802	2	20.7097	27.6091	11.4994
	803	2	20.6914	27.5907	16.0983
	804	2	20.708	27.5901	20.6997
	805	2	20.6934	27.5935	25.2985
	806	2	25.307	0.0093	2.3085
	807	2	25.3057	0.0025	6.9097
	808	2	25.3091	-0.0058	11.4978
	809	2	25.3098	-0.0036	16.0991
	810	2	25.3025	0.0033	20.7078
	811	1	25.2962	-0.0048	25.2928
	812	2	25.3083	4.5911	2.2901
	813	2	25.3078	4.6012	6.8909
	814	1	25.2945	4.6042	11.5083
	815	2	25.2938	4.5933	16.0952
	816	1	25.295	4.6057	20.7
	817	2	25.3088	4.5934	25.2985
	818	2	25.2911	9.2016	2.3071
	819	2	25.2914	9.2068	6.9
	820	1	25.2965	9.2081	11.5066
	821	2	25.2941	9.1904	16.0921
	822	2	25.3059	9.1977	20.7094
	823	2	25.306	9.209	25.3011
	824	2	25.2938	13.7992	2.3096
	825	2	25.3067	13.8099	6.9007
	826	2	25.3067	13.8076	11.5007
	827	1	25.2924	13.8015	16.0957
	828	2	25.3025	13.8096	20.7027
	829	2	25.2949	13.7936	25.3078
	830	2	25.2923	18.3921	2.2912
	831	1	25.3059	18.4053	6.8939
	832	2	25.299	18.4067	11.49
	833	1	25.2984	18.408	16.0938
	834	2	25.3083	18.3961	20.6979
	835	2	25.3036	18.4015	25.2944
	836	1	25.3095	23.0086	2.2985
	837	2	25.2913	23.0077	6.9061
	838	2	25.2996	23.0092	11.5064
	839	1	25.3094	22.9937	16.0953
	840	2	25.2967	23.0079	20.7094
	841	1	25.2921	23.0087	25.2945
	842	2	25.3048	27.593	2.2986
	843	2	25.2931	27.6032	6.9036
	844	1	25.2955	27.6013	11.4938
	845	2	25.3077	27.5987	16.0964
	846	1	25.2985	27.5988	20.7001
	847	2	25.3019	27.5923	25.2973
	848	1	0.0074	2.3044	2.2958
	849	1	-0.0041	2.293	6.8924
	850	2	-0.0048	2.2917	11.51
	851	2	0.0095	2.2981	16.1017
	852	1	0.0068	2.2943	20.6999
	853	2	-0.0095	2.2906	25.2971
	854	2	-0.0073	6.8927	2.3055
	855	2	-0.0061	6.9	6.8916
	856	2	0.0004	6.9029	11.5048
	857	2	-0.0026	6.8999	16.1026
	858	1	-0.0047	6.9053	20.7053
	859	2	-0.007	6.8933	25.2959
	860	2	-0.0057	11.4924	2.3019
	861	2	-0.0026	11.4977	6.906
	862	1	-0.0006	11.5079	11.5021
	863	1	-0.0069	11.4936	16.0947
	864	2	0.0088	11.4942	20.6945
	865	2	-0.0006	11.5063	25.3047
	866	2	-0.0049	16.109	2.3097
	867	1	-0.0008	16.0965	6.8942
	868	1	-0.0003	16.1067	11.4914
	869	1	0.0069	16.1025	16.0935
	870	2	0.0084	16.0977	20.7025
	871	1	-0.0031	16.0925	25.3029
	872	1	0.0092	20.6991	2.3009
	873	2	0.0059	20.6936	6.8981
	874	2	-0.003	20.7075	11.5099
	875	2	0.0088	20.7036	16.0983
	876	2	0.006	20.6962	20.6925
	877	1	0.001	20.6957	25.2981
	878	2	0.0	25.2965	2.3072
	879	1	0.0089	25.2904	6.9065
	880	2	0.0048	25.2979	11.4946
	881	2	0.0079	25.3055	16.1033
	882	1	-0.0056	25.2911	20.7069
	883	2	-0.0045	25.2977	25.3013
	884	2	4.6034	2.2947	2.2963
	885	2	4.6004	2.3058	6.8977
	886	2	4.5915	2.3066	11.5063
	887	2	4.6002	2.2974	16.1035
	888	1	4.591	2.3091	20.6921
	889	2	4.6009	2.3072	25.3029
	890	2	4.606	6.9058	2.304
	891	1	4.6067	6.9093	6.8914
	892	2	4.6016	6.905	11.4907
	893	2	4.5974	6.8943	16.0982
	894	2	4.5914	6.903	20.7078
	895	2	4.6029	6.8988	25.2956
	896	1	4.608	11.4997	2.2934
	897	2	4.5973	11.5086	6.8973
	898	1	4.6032	11.4958	11.4928
	899	2	4.6012	11.5008	16.0988
	900	2	4.6093	11.5065	20.6972
	901	1	4.6086	11.4952	25.3005
	902	1	4.593	16.092	2.2958
	903	2	4.5961	16.0926	6.9089
	904	2	4.5995	16.1004	11.4914
	905	2	4.5921	16.1062	16.1083
	906	2	4.6055	16.1029	20.6908
	907	1	4.6095	16.0998	25.3084
	908	2	4.61	20.6976	2.302
	909	1	4.6064	20.6919	6.9092
	910	2	4.6	20.7077	11.4922
	911	2	4.6044	20.6976	16.1034
	912	1	4.606	20.708	20.6975
	913	2	4.6095	20.7093	25.2981
	914	2	4.5951	25.2944	2.2975
	915	2	4.6005	25.3085	6.8946
	916	2	4.6068	25.3063	11.5019
	917	2	4.6039	25.2976	16.094
	918	1	4.5952	25.3095	20.7012
	919	1	4.5931	25.3078	25.2917
	920	2	9.2032	2.3018	2.2978
	921	2	9.2035	2.3098	6.8971
	922	1	9.2027	2.2955	11.5095
	923	2	9.1915	2.3029	16.0958
	924	1	9.2041	2.3001	20.702
	925	2	9.1952	2.3001	25.3053
	926	1	9.194	6.8912	2.3035
	927	2	9.1937	6.8997	6.9041
	928	1	9.2023	6.8978	11.5081
	929	2	9.1922	6.8926	16.0966
	930	2	9.2063	6.8987	20.7052
	931	1	9.1992	6.9048	25.2929
	932	2	9.2021	11.5007	2.3043
	933	2	9.1924	11.5015	6.9009
	934	2	9.2058	11.5088	11.4942
	935	2	9.2016	11.4904	16.0948
	936	2	9.1969	11.5025	20.6978
	937	2	9.2085	11.4961	25.3042
	938	2	9.2077	16.1042	2.3068
	939	1	9.2014	16.1077	6.9019
	940	1	9.1949	16.105	11.5054
	941	2	9.2035	16.1003	16.105
	942	2	9.2088	16.1013	20.7061
	943	2	9.2098	16.0982	25.3073
	944	1	9.197	20.6947	2.2963
	945	2	9.1954	20.7004	6.9089
	946	2	9.2005	20.7009	11.5021
	947	2	9.2	20.7004	16.093
	948	1	9.1928	20.6952	20.6973
	949	2	9.2009	20.705	25.3093
	950	2	9.1963	25.299	2.2947
	951	2	9.1974	25.2931	6.8936
	952	2	9.1919	25.3097	11.5041
	953	2	9.2	25.2962	16.1083
	954	2	9.1958	25.3051	20.7087
	955	2	9.2064	25.3078	25.2955
	956	2	13.7983	2.3092	2.2977
	957	2	13.8096	2.3036	6.8925
	958	2	13.8048	2.2962	11.5062
	959	2	13.7963	2.2933	16.1071
	960	1	13.8001	2.2904	20.7073
	961	1	13.7906	2.302	25.3095
	962	2	13.802	6.9013	2.2961
	963	2	13.7946	6.905	6.8994
	964	1	13.8002	6.9099	11.4977
	965	2	13.7945	6.9056	16.0918
	966	1	13.7968	6.9082	20.6913
	967	1	13.7943	6.9058	25.2911
	968	2	13.8024	11.492	2.3009
	969	1	13.7934	11.4913	6.8954
	970	2	13.799	11.4926	11.5017
	971	2	13.8038	11.5054	16.1002
	972	1	13.7988	11.5012	20.7052
	973	2	13.8037	11.4964	25.2902
	974	1	13.8032	16.1043	2.3021
	975	2	13.7911	16.0911	6.9009
	976	2	13.7937	16.1041	11.5056
	977	2	13.81	16.0954	16.1079
	978	1	13.8076	16.0984	20.6958
	979	2	13.8087	16.0963	25.3015
	980	2	13.8014	20.6911	2.3018
	981	2	13.796	20.7015	6.9033
	982	1	13.796	20.7065	11.5001
	983	2	13.7905	20.7067	16.0927
	984	2	13.8085	20.6965	20.7011
	985	2	13.8089	20.7064	25.3095
	986	1	13.7951	25.3012	2.3025
	987	1	13.7908	25.3089	6.8994
	988	1	13.799	25.2906	11.5058
	989	2	13.7946	25.2981	16.0985
	990	2	13.807	25.3063	20.6925
	991	1	13.7905	25.302	25.3044
	992	1	18.3937	2.2988	2.3074
	993	2	18.4089	2.2916	6.9029
	994	2	18.4038	2.3002	11.4903
	995	1	18.3969	2.3043	16.1002
	996	1	18.4029	2.3009	20.7038
	997	2	18.3919	2.3028	25.2944
	998	1	18.3907	6.9061	2.293
	999	2	18.3954	6.8914	6.9062
	1000	2	18.3922	6.8999	11.4933
	1001	2	18.3972	6.8997	16.0956
	1002	2	18.4025	6.8986	20.7013
	1003	2	18.408	6.8902	25.303
	1004	2	18.409	11.5096	2.2973
	1005	2	18.3911	11.4994	6.9083
	1006	2	18.394	11.4939	11.4918
	1007	2	18.4089	11.4987	16.0918
	1008	1	18.3996	11.5034	20.6942
	1009	1	18.4049	11.4996	25.2907