Nickle Copper Simulation

4631 	atoms
0 	bonds
0 	angles
0 	dihedrals
0 	impropers

2	atom types
0	bond types
0	angle types
0	dihedral types
0	improper types

-0.02	46.02	xlo xhi
-0.02	46.02	ylo yhi
-0.02	46.02	zlo zhi

Atoms

	1	1	-0.0029	0.0065	-0.0015
	2	2	-0.0014	-0.0094	4.5933
	3	2	-0.0061	-0.004	9.196
	4	2	0.0066	0.0059	13.8075
	5	2	-0.0036	0.004	18.3988
	6	2	-0.0027	-0.001	23.0083
	7	2	-0.006	-0.0056	27.6045
	8	1	-0.0004	-0.0008	32.2052
	9	2	0.0082	0.0023	36.8034
	10	2	0.0043	0.003	41.3973
	11	2	-0.0018	-0.0026	45.9976
	12	2	0.0079	4.5955	0.005
	13	2	0.0027	4.6034	4.5999
	14	1	0.0047	4.5976	9.2082
	15	1	0.0094	4.6093	13.8039
	16	2	0.0077	4.5925	18.4099
	17	2	0.0065	4.5963	23.0033
	18	2	0.0062	4.5923	27.603
	19	2	0.0007	4.6083	32.2051
	20	1	-0.005	4.6045	36.8054
	21	2	-0.0043	4.5913	41.4052
	22	1	-0.001	4.6028	46.0025
	23	2	-0.0098	9.1976	-0.0065
	24	2	-0.0024	9.2057	4.5915
	25	1	-0.0047	9.1955	9.2084
	26	1	0.0029	9.2051	13.7904
	27	1	-0.0032	9.201	18.3999
	28	2	0.0062	9.2097	23.0073
	29	2	0.007	9.1936	27.5955
	30	1	-0.0015	9.195	32.1976
	31	2	-0.004	9.2087	36.8035
	32	2	-0.0072	9.1904	41.3939
	33	2	0.0023	9.2092	46.0042
	34	1	0.0026	13.7974	0.0068
	35	2	-0.0072	13.7977	4.5933
	36	2	0.0074	13.81	9.1964
	37	2	-0.0043	13.7903	13.7988
	38	2	-0.0091	13.8032	18.4096
	39	2	-0.0	13.7959	22.9936
	40	1	0.0094	13.8069	27.6045
	41	2	-0.0051	13.8006	32.1901
	42	2	0.0041	13.7949	36.7985
	43	2	0.0081	13.7904	41.4018
	44	2	-0.003	13.7908	45.9971
	45	1	-0.0095	18.4057	-0.0008
	46	1	0.003	18.4039	4.5991
	47	1	0.008	18.3987	9.197
	48	2	0.0058	18.3964	13.8002
	49	2	-0.0043	18.3973	18.4011
	50	1	-0.0083	18.3942	22.9967
	51	1	0.003	18.3986	27.608
	52	2	-0.0081	18.4067	32.2009
	53	1	-0.0082	18.3917	36.8029
	54	1	0.0054	18.3962	41.3922
	55	2	0.0028	18.3997	45.9912
	56	2	-0.0012	22.9963	0.0023
	57	1	0.0009	22.9941	4.5966
	58	2	0.0068	22.9955	9.1921
	59	1	-0.0077	22.9993	13.7953
	60	2	-0.0078	23.0	18.4077
	61	1	-0.0034	23.0001	22.9929
	62	2	-0.0034	23.0057	27.6041
	63	1	0.002	23.004	32.1945
	64	2	0.0035	22.9993	36.7923
	65	2	0.0062	22.9967	41.4068
	66	2	-0.0028	23.0071	46.0055
	67	2	-0.0077	27.6081	-0.0042
	68	2	0.0085	27.5992	4.5975
	69	1	0.0076	27.5968	9.2048
	70	1	0.0087	27.6021	13.806
	71	1	0.0034	27.6025	18.3933
	72	2	-0.002	27.5977	22.9941
	73	2	0.0015	27.606	27.5992
	74	1	0.0081	27.5973	32.206
	75	2	0.0045	27.5991	36.7983
	76	2	-0.0028	27.5956	41.3903
	77	2	0.0027	27.6023	45.9931
	78	2	-0.0006	32.1944	0.0065
	79	2	-0.0023	32.2003	4.6002
	80	2	-0.0076	32.2018	9.194
	81	1	-0.0071	32.1915	13.7954
	82	1	-0.0009	32.2036	18.3994
	83	2	-0.0087	32.2057	22.9968
	84	2	-0.0016	32.1985	27.6063
	85	2	0.0031	32.1938	32.1907
	86	2	-0.0095	32.2012	36.8006
	87	2	-0.0025	32.1993	41.4016
	88	2	0.0082	32.1949	45.9935
	89	1	0.0055	36.7943	-0.0062
	90	2	0.0028	36.8032	4.5929
	91	1	-0.0031	36.8068	9.1929
	92	1	-0.0086	36.8064	13.7961
	93	2	0.0042	36.7911	18.3905
	94	2	0.0081	36.8038	22.9996
	95	1	0.0086	36.7957	27.5977
	96	1	-0.0085	36.805	32.2079
	97	2	0.004	36.8005	36.8089
	98	2	0.0091	36.8069	41.3999
	99	1	-0.0088	36.8073	45.9945
	100	2	-0.0095	41.4058	-0.0027
	101	1	0.0086	41.4038	4.5929
	102	2	0.0022	41.4001	9.1965
	103	1	0.0015	41.3996	13.8079
	104	2	0.0072	41.4041	18.3958
	105	2	0.0086	41.3921	23.0081
	106	1	-0.0029	41.4092	27.6077
	107	2	-0.0002	41.4001	32.1966
	108	2	-0.008	41.404	36.7938
	109	2	0.0096	41.4018	41.4081
	110	2	-0.0029	41.4018	45.992
	111	2	-0.0086	45.9972	0.0084
	112	1	0.0059	46.0098	4.5906
	113	1	-0.0032	46.0087	9.199
	114	1	0.0058	45.992	13.8035
	115	1	-0.0039	45.9947	18.3978
	116	2	0.0083	45.9985	23.0072
	117	1	-0.0092	45.9987	27.6053
	118	1	-0.0091	46.0057	32.2044
	119	2	-0.0051	45.9927	36.792
	120	1	-0.0027	46.0093	41.409
	121	2	-0.0009	45.9912	45.9939
	122	2	4.6081	0.0099	-0.0062
	123	2	4.6007	0.0052	4.5926
	124	1	4.598	-0.0024	9.2097
	125	2	4.5925	0.0015	13.8029
	126	2	4.5987	-0.0085	18.3996
	127	2	4.5946	0.0072	23.006
	128	1	4.6059	0.0042	27.6074
	129	2	4.5958	-0.0018	32.2005
	130	2	4.5926	-0.0095	36.8087
	131	2	4.5954	-0.0087	41.3953
	132	2	4.5906	-0.0044	46.0036
	133	2	4.6023	4.6098	0.0007
	134	2	4.6047	4.5928	4.6062
	135	2	4.6031	4.593	9.1925
	136	2	4.6049	4.5949	13.7941
	137	2	4.5905	4.6058	18.3906
	138	2	4.5955	4.594	23.0002
	139	1	4.6092	4.5926	27.6005
	140	1	4.6034	4.5947	32.1959
	141	2	4.609	4.5904	36.804
	142	2	4.6038	4.598	41.3942
	143	1	4.5999	4.6072	46.0014
	144	2	4.6039	9.2095	-0.005
	145	1	4.607	9.1947	4.6023
	146	2	4.5994	9.2013	9.2072
	147	2	4.6009	9.2024	13.7923
	148	2	4.5946	9.2088	18.4041
	149	2	4.6076	9.2025	23.0086
	150	1	4.6028	9.1915	27.6064
	151	2	4.6009	9.2093	32.1972
	152	2	4.6031	9.1901	36.8087
	153	2	4.5976	9.1925	41.404
	154	2	4.6044	9.1903	45.9964
	155	2	4.5999	13.8045	-0.0059
	156	2	4.6023	13.8025	4.599
	157	1	4.5911	13.7993	9.2033
	158	2	4.6003	13.799	13.799
	159	1	4.6081	13.8073	18.4074
	160	1	4.6049	13.7905	22.9965
	161	2	4.599	13.7957	27.6009
	162	1	4.6052	13.79	32.1953
	163	2	4.5908	13.8033	36.8004
	164	1	4.5915	13.8095	41.3953
	165	2	4.5946	13.7924	45.9963
	166	2	4.5956	18.3996	0.0052
	167	2	4.6075	18.4007	4.6041
	168	2	4.5946	18.4051	9.1945
	169	1	4.5984	18.4035	13.7961
	170	2	4.6001	18.409	18.392
	171	2	4.6024	18.4052	22.993
	172	1	4.6064	18.4036	27.5997
	173	2	4.5979	18.4019	32.1952
	174	2	4.6038	18.4055	36.8063
	175	2	4.6028	18.4082	41.4002
	176	2	4.6036	18.4076	46.0053
	177	2	4.6014	23.0014	-0.0023
	178	1	4.5903	23.0018	4.6066
	179	2	4.5918	23.0016	9.1938
	180	2	4.5981	23.0083	13.8086
	181	1	4.6099	23.0048	18.4083
	182	2	4.6021	23.0098	23.0059
	183	2	4.5938	22.9983	27.6006
	184	2	4.5994	22.9976	32.1958
	185	2	4.5984	22.9993	36.7972
	186	1	4.6039	22.9973	41.3965
	187	2	4.5961	22.9928	45.9946
	188	2	4.6058	27.6094	-0.001
	189	1	4.603	27.5997	4.6091
	190	2	4.6075	27.6	9.1971
	191	2	4.5999	27.5918	13.8009
	192	1	4.5934	27.6008	18.3938
	193	2	4.594	27.6017	23.0092
	194	2	4.5986	27.5935	27.6027
	195	2	4.5906	27.5961	32.2098
	196	2	4.5902	27.5999	36.7969
	197	2	4.6082	27.6017	41.3974
	198	2	4.5939	27.6017	46.0092
	199	1	4.6003	32.2059	-0.0064
	200	2	4.6092	32.2039	4.5967
	201	2	4.5915	32.1911	9.1968
	202	2	4.5914	32.1975	13.8025
	203	1	4.5996	32.2079	18.3939
	204	2	4.6048	32.203	22.9989
	205	2	4.5987	32.2034	27.5971
	206	2	4.5987	32.2033	32.2066
	207	2	4.6038	32.2067	36.8037
	208	1	4.5942	32.1955	41.39
	209	2	4.5998	32.1909	45.9978
	210	2	4.6039	36.7987	0.0077
	211	2	4.5986	36.8057	4.5921
	212	2	4.5923	36.7905	9.1907
	213	2	4.6002	36.8043	13.7909
	214	2	4.5917	36.7942	18.3983
	215	1	4.61	36.8091	23.0068
	216	2	4.5983	36.7947	27.5943
	217	2	4.6087	36.7986	32.2058
	218	1	4.6073	36.8013	36.8081
	219	2	4.6093	36.7999	41.3992
	220	2	4.5982	36.7981	45.9924
	221	2	4.5954	41.3963	-0.0069
	222	2	4.6077	41.4001	4.6017
	223	2	4.5981	41.3991	9.2046
	224	1	4.5917	41.4047	13.7999
	225	2	4.5984	41.4028	18.3928
	226	1	4.6019	41.4074	23.0091
	227	1	4.6017	41.4027	27.6026
	228	1	4.5943	41.3904	32.192
	229	2	4.6012	41.4012	36.8095
	230	2	4.5971	41.4017	41.4011
	231	2	4.6075	41.4012	46.0021
	232	1	4.5996	45.998	-0.0068
	233	2	4.5989	45.9936	4.6056
	234	2	4.6051	45.9938	9.207
	235	2	4.6092	45.9917	13.799
	236	2	4.5944	46.0036	18.4038
	237	2	4.5944	45.9918	23.0092
	238	2	4.5966	46.0	27.6023
	239	2	4.605	46.0045	32.203
	240	1	4.5937	45.9948	36.8072
	241	2	4.5948	46.0021	41.3927
	242	1	4.605	45.997	45.998
	243	1	9.2088	0.0089	-0.0007
	244	2	9.199	-0.0063	4.5937
	245	2	9.1948	0.0009	9.199
	246	2	9.2094	-0.0025	13.8088
	247	2	9.2055	-0.0065	18.3961
	248	2	9.2097	-0.0072	23.0074
	249	2	9.1928	-0.002	27.6043
	250	1	9.2056	-0.0077	32.2081
	251	2	9.2064	-0.0087	36.7975
	252	1	9.2077	-0.0038	41.394
	253	2	9.2031	0.0078	46.0059
	254	2	9.2023	4.6073	-0.0023
	255	2	9.1906	4.6049	4.5948
	256	1	9.1994	4.5921	9.1925
	257	1	9.1909	4.5961	13.7925
	258	2	9.203	4.5901	18.3915
	259	1	9.1933	4.5939	22.9936
	260	1	9.198	4.6016	27.5904
	261	1	9.1948	4.6082	32.1942
	262	2	9.2079	4.5905	36.8055
	263	1	9.2036	4.5963	41.4003
	264	2	9.208	4.606	45.992
	265	2	9.2043	9.2084	-0.01
	266	1	9.1966	9.2059	4.6067
	267	2	9.1927	9.1989	9.2073
	268	1	9.1943	9.2067	13.8009
	269	2	9.1908	9.2074	18.3926
	270	1	9.2054	9.1912	22.9927
	271	2	9.205	9.1952	27.6003
	272	2	9.2017	9.2085	32.2095
	273	1	9.2032	9.2088	36.8019
	274	2	9.196	9.2088	41.3926
	275	2	9.2098	9.2043	46.0094
	276	2	9.2018	13.7985	0.0038
	277	2	9.1934	13.7945	4.593
	278	1	9.1906	13.7929	9.2047
	279	2	9.199	13.8007	13.8043
	280	2	9.1968	13.8099	18.3903
	281	2	9.2026	13.7983	22.9961
	282	2	9.2067	13.801	27.6036
	283	2	9.2068	13.791	32.2084
	284	2	9.1959	13.8094	36.7962
	285	2	9.1931	13.7916	41.3979
	286	2	9.1967	13.8029	46.0044
	287	1	9.2031	18.3939	-0.004
	288	1	9.2042	18.3936	4.5909
	289	1	9.1983	18.3957	9.2006
	290	2	9.1939	18.3959	13.81
	291	2	9.194	18.4043	18.408
	292	2	9.1934	18.3903	22.9984
	293	2	9.2016	18.4004	27.6067
	294	2	9.1943	18.3991	32.2026
	295	2	9.1936	18.4029	36.7926
	296	2	9.1949	18.4035	41.402
	297	2	9.202	18.4093	46.0081
	298	1	9.2089	22.9979	0.001
	299	1	9.1943	23.0058	4.5927
	300	2	9.1962	22.9941	9.1957
	301	1	9.204	22.9978	13.7974
	302	2	9.2	23.0006	18.3982
	303	1	9.2092	23.007	23.0054
	304	2	9.2051	22.9939	27.5973
	305	2	9.1998	22.9978	32.2048
	306	2	9.2021	23.0069	36.7953
	307	2	9.2073	22.9957	41.391
	308	2	9.21	23.0057	45.9939
	309	2	9.1927	27.6036	-0.009
	310	1	9.2016	27.6091	4.6076
	311	2	9.2055	27.5911	9.2099
	312	2	9.1909	27.591	13.7948
	313	2	9.2026	27.5952	18.3965
	314	1	9.1982	27.6069	23.0025
	315	1	9.1907	27.5993	27.6044
	316	2	9.1958	27.5935	32.209
	317	1	9.1929	27.6043	36.8018
	318	2	9.1939	27.6035	41.3964
	319	1	9.1928	27.5996	45.9973
	320	2	9.2009	32.1976	0.0059
	321	2	9.2004	32.2002	4.6084
	322	2	9.1991	32.1907	9.1952
	323	2	9.1909	32.1959	13.8064
	324	2	9.2013	32.1923	18.396
	325	1	9.208	32.2044	22.9915
	326	2	9.2002	32.1957	27.6023
	327	2	9.1932	32.1946	32.2049
	328	2	9.1939	32.1975	36.7906
	329	2	9.1983	32.2096	41.3927
	330	2	9.2024	32.1968	45.9986
	331	2	9.2015	36.8008	0.0068
	332	2	9.1901	36.8043	4.603
	333	2	9.2037	36.8084	9.1979
	334	2	9.2084	36.7964	13.8016
	335	2	9.1965	36.8009	18.3997
	336	2	9.2017	36.7916	22.9966
	337	1	9.1989	36.8017	27.6063
	338	2	9.1945	36.7909	32.1971
	339	2	9.2018	36.792	36.795
	340	2	9.1935	36.8078	41.4061
	341	2	9.2043	36.8087	46.0072
	342	2	9.1927	41.3914	0.0028
	343	1	9.2042	41.4042	4.5932
	344	1	9.209	41.409	9.2079
	345	2	9.1941	41.4016	13.7934
	346	2	9.204	41.4046	18.401
	347	2	9.2066	41.4036	22.9999
	348	2	9.1918	41.4057	27.5974
	349	2	9.1977	41.3949	32.2062
	350	2	9.21	41.407	36.8098
	351	1	9.21	41.3951	41.4088
	352	2	9.1959	41.4067	45.9949
	353	1	9.2084	45.9905	0.0068
	354	2	9.2083	46.0039	4.5957
	355	1	9.1986	46.0086	9.2042
	356	2	9.2048	46.0035	13.7949
	357	1	9.2018	46.0082	18.4071
	358	2	9.2063	45.9977	22.9997
	359	1	9.1985	45.9979	27.5973
	360	1	9.1904	46.0068	32.2073
	361	1	9.2002	45.9911	36.7959
	362	2	9.2057	46.0008	41.3999
	363	2	9.203	45.9911	46.0024
	364	1	13.7988	0.009	-0.0089
	365	2	13.806	0.0092	4.5906
	366	2	13.7934	-0.007	9.2045
	367	2	13.8095	-0.0019	13.7917
	368	2	13.7987	0.0069	18.4029
	369	1	13.7967	0.0054	22.9918
	370	2	13.7904	0.0027	27.6019
	371	2	13.7916	0.0039	32.2027
	372	2	13.7988	0.0041	36.806
	373	2	13.8006	0.0092	41.4095
	374	2	13.7923	0.0047	45.9975
	375	1	13.8025	4.607	0.001
	376	2	13.8063	4.6013	4.5936
	377	2	13.8014	4.5976	9.2096
	378	2	13.79	4.5917	13.8088
	379	2	13.7945	4.6002	18.4036
	380	1	13.8063	4.599	23.0028
	381	2	13.8042	4.5988	27.5989
	382	2	13.8099	4.5921	32.1917
	383	2	13.8093	4.5917	36.7963
	384	2	13.7946	4.5937	41.4077
	385	2	13.7923	4.5934	45.9902
	386	2	13.8033	9.2005	-0.0068
	387	2	13.8041	9.1992	4.606
	388	2	13.8069	9.192	9.1989
	389	1	13.8074	9.1934	13.805
	390	1	13.7914	9.1962	18.401
	391	2	13.7961	9.1903	23.0004
	392	2	13.8053	9.2087	27.5974
	393	1	13.799	9.1975	32.2037
	394	2	13.7964	9.2012	36.7982
	395	1	13.8042	9.1951	41.3947
	396	2	13.7901	9.1995	46.0094
	397	2	13.804	13.8014	-0.0074
	398	2	13.8097	13.79	4.5984
	399	1	13.7965	13.7955	9.2067
	400	1	13.7946	13.7919	13.8091
	401	2	13.8076	13.8023	18.3929
	402	2	13.7908	13.8054	23.0021
	403	2	13.7928	13.8017	27.5958
	404	2	13.793	13.8024	32.199
	405	2	13.8047	13.7934	36.8062
	406	1	13.8056	13.8093	41.4067
	407	2	13.8028	13.7944	45.9999
	408	2	13.8024	18.41	-0.0021
	409	2	13.7906	18.4066	4.6047
	410	2	13.8078	18.4078	9.1981
	411	2	13.7974	18.3903	13.8037
	412	1	13.8072	18.4007	18.3945
	413	1	13.8045	18.4071	23.0068
	414	2	13.8059	18.4081	27.5967
	415	2	13.8055	18.4031	32.2054
	416	1	13.7994	18.4029	36.8004
	417	1	13.8093	18.4031	41.4038
	418	1	13.8064	18.3932	45.9948
	419	2	13.8065	22.997	-0.0024
	420	2	13.8068	22.9945	4.5932
	421	2	13.7913	22.9923	9.1906
	422	2	13.8026	22.9982	13.8018
	423	1	13.7984	23.0051	18.4018
	424	2	13.7912	23.007	23.0022
	425	1	13.7977	22.9951	27.5962
	426	1	13.8028	22.9971	32.2091
	427	2	13.792	23.0022	36.8057
	428	2	13.799	22.9921	41.4014
	429	2	13.8013	23.0063	46.0056
	430	1	13.8056	27.6054	-0.0081
	431	1	13.7971	27.5934	4.609
	432	1	13.8037	27.6081	9.2092
	433	2	13.7971	27.5925	13.7953
	434	2	13.7999	27.6013	18.3946
	435	1	13.7978	27.591	22.9971
	436	2	13.7966	27.6083	27.6042
	437	2	13.7955	27.6033	32.1907
	438	2	13.795	27.6099	36.8093
	439	2	13.7963	27.5958	41.4092
	440	2	13.7921	27.5977	46.0009
	441	2	13.8076	32.2021	0.0031
	442	2	13.7971	32.1915	4.5949
	443	2	13.8079	32.1991	9.2033
	444	1	13.7939	32.1997	13.7903
	445	2	13.7921	32.1906	18.3998
	446	2	13.7951	32.1925	23.0054
	447	2	13.8052	32.2034	27.607
	448	2	13.8087	32.1918	32.1959
	449	2	13.7906	32.209	36.8004
	450	2	13.7952	32.1916	41.3967
	451	2	13.8008	32.2065	46.0038
	452	2	13.8092	36.8083	-0.0095
	453	2	13.7989	36.8083	4.6045
	454	2	13.7938	36.8072	9.1929
	455	2	13.8039	36.7987	13.7973
	456	2	13.8095	36.7997	18.3966
	457	2	13.8008	36.7906	22.9992
	458	1	13.8037	36.8007	27.6029
	459	2	13.7966	36.8099	32.2087
	460	2	13.8058	36.8093	36.7968
	461	2	13.8088	36.8082	41.4065
	462	2	13.7981	36.7917	45.9921
	463	2	13.7959	41.4016	0.0031
	464	2	13.8072	41.3991	4.6097
	465	2	13.7913	41.399	9.191
	466	2	13.7913	41.3947	13.7918
	467	2	13.8098	41.3969	18.4012
	468	2	13.8093	41.4084	23.0099
	469	2	13.7921	41.3908	27.6047
	470	2	13.7944	41.3949	32.1955
	471	2	13.7991	41.4055	36.8012
	472	2	13.7969	41.4046	41.4084
	473	2	13.7978	41.409	45.9944
	474	2	13.8028	45.9925	0.0011
	475	1	13.7914	46.0089	4.5972
	476	2	13.798	46.0077	9.1937
	477	2	13.7929	45.9976	13.8001
	478	1	13.7924	46.0056	18.4051
	479	2	13.7916	46.0088	23.0047
	480	1	13.7901	45.9955	27.5939
	481	2	13.7963	45.9959	32.1982
	482	2	13.7994	45.9924	36.8085
	483	2	13.8051	46.0071	41.4026
	484	1	13.7985	46.0011	45.9905
	485	2	18.4079	-0.0053	-0.0041
	486	2	18.3976	-0.0048	4.6033
	487	1	18.4015	-0.0087	9.1975
	488	2	18.3928	0.0004	13.807
	489	2	18.4	0.0016	18.4067
	490	1	18.3969	-0.0044	22.9951
	491	1	18.3901	0.0072	27.6032
	492	2	18.4047	0.0034	32.2042
	493	2	18.3987	0.0027	36.7974
	494	2	18.4055	0.0055	41.3977
	495	1	18.409	0.0098	46.0093
	496	2	18.3923	4.6023	0.0025
	497	1	18.4087	4.6064	4.6024
	498	2	18.3946	4.5945	9.1959
	499	2	18.3941	4.5944	13.8
	500	2	18.3913	4.5901	18.3973
	501	2	18.3911	4.602	23.0009
	502	2	18.4084	4.5917	27.6094
	503	2	18.3917	4.6018	32.2035
	504	1	18.4067	4.5919	36.7901
	505	2	18.4009	4.6061	41.4093
	506	2	18.3992	4.5914	45.999
	507	2	18.3934	9.2057	0.0038
	508	2	18.3995	9.2001	4.601
	509	2	18.3969	9.2096	9.1909
	510	2	18.4099	9.2074	13.8046
	511	2	18.4081	9.1996	18.3993
	512	2	18.4053	9.2011	22.9968
	513	2	18.3935	9.2001	27.6031
	514	1	18.4033	9.2035	32.2043
	515	1	18.3925	9.1963	36.8013
	516	2	18.4039	9.1996	41.4015
	517	2	18.3965	9.2021	46.0003
	518	2	18.4068	13.7929	0.0011
	519	1	18.3917	13.8073	4.5947
	520	2	18.396	13.8028	9.2099
	521	1	18.402	13.8077	13.8048
	522	2	18.403	13.7971	18.4063
	523	2	18.3948	13.8002	23.0042
	524	2	18.4086	13.7934	27.6054
	525	2	18.3917	13.7973	32.2095
	526	1	18.4067	13.8065	36.7913
	527	2	18.4027	13.8051	41.3964
	528	2	18.4051	13.795	45.9958
	529	2	18.41	18.396	0.0007
	530	2	18.3963	18.4077	4.5933
	531	2	18.4023	18.3977	9.2008
	532	2	18.4083	18.3978	13.8015
	533	2	18.4028	18.4081	18.4071
	534	2	18.4019	18.407	22.9957
	535	1	18.3915	18.3903	27.5912
	536	1	18.401	18.405	32.1941
	537	2	18.395	18.4009	36.8062
	538	2	18.3977	18.4093	41.397
	539	1	18.4076	18.394	45.9959
	540	1	18.3903	22.9984	-0.0002
	541	2	18.4019	23.0054	4.592
	542	2	18.3901	23.0074	9.2087
	543	1	18.3934	23.0092	13.7924
	544	2	18.3929	23.0026	18.4013
	545	2	18.3994	22.9918	23.0049
	546	1	18.3928	23.0016	27.5965
	547	1	18.3967	23.0028	32.2019
	548	2	18.4072	23.0091	36.8005
	549	2	18.404	23.0027	41.3931
	550	2	18.399	23.0056	45.9973
	551	2	18.3954	27.5943	0.004
	552	2	18.397	27.5993	4.6041
	553	1	18.4069	27.5931	9.2039
	554	1	18.3987	27.5908	13.7949
	555	2	18.4067	27.5921	18.4015
	556	2	18.4059	27.6025	23.0018
	557	1	18.3917	27.6088	27.6028
	558	1	18.393	27.5947	32.1927
	559	2	18.4088	27.5959	36.7926
	560	2	18.4033	27.6098	41.3978
	561	2	18.408	27.6043	46.0077
	562	2	18.3938	32.1956	0.01
	563	2	18.4032	32.1984	4.6053
	564	2	18.4007	32.1984	9.2006
	565	1	18.4015	32.1924	13.7974
	566	1	18.4004	32.2034	18.4038
	567	2	18.404	32.1928	23.0031
	568	1	18.409	32.2038	27.5963
	569	2	18.4087	32.1946	32.2021
	570	2	18.3956	32.1969	36.8021
	571	2	18.4013	32.2069	41.3936
	572	1	18.3929	32.1932	46.0044
	573	2	18.4055	36.7921	-0.0034
	574	2	18.4044	36.8006	4.6076
	575	2	18.3969	36.7989	9.1936
	576	2	18.4081	36.7902	13.7975
	577	1	18.3961	36.8075	18.393
	578	2	18.41	36.8083	22.9969
	579	1	18.4004	36.8087	27.5994
	580	2	18.3938	36.7933	32.1912
	581	2	18.4048	36.7952	36.7958
	582	2	18.3925	36.7952	41.3905
	583	2	18.3966	36.7925	46.0005
	584	2	18.4026	41.4075	-0.0087
	585	2	18.3952	41.4028	4.6035
	586	2	18.4047	41.4015	9.2055
	587	2	18.4098	41.4073	13.7909
	588	2	18.3922	41.3904	18.3999
	589	2	18.4012	41.4047	23.0087
	590	1	18.409	41.4074	27.6079
	591	2	18.397	41.4008	32.2086
	592	2	18.4069	41.3941	36.8078
	593	2	18.4073	41.3947	41.396
	594	2	18.4038	41.4064	45.9996
	595	1	18.3989	46.0051	0.0083
	596	2	18.4085	46.0082	4.5923
	597	1	18.4062	45.9913	9.2051
	598	2	18.4029	45.9913	13.806
	599	2	18.4026	46.001	18.3956
	600	1	18.3906	45.9964	23.0032
	601	2	18.4077	45.9952	27.6003
	602	2	18.3983	46.0074	32.1938
	603	2	18.4029	45.9935	36.8023
	604	1	18.3914	45.9922	41.3979
	605	2	18.4076	45.9907	45.9933
	606	2	22.9983	0.0007	-0.0022
	607	1	22.9937	-0.0088	4.601
	608	2	22.9949	0.0083	9.1964
	609	1	23.0053	-0.0044	13.8036
	610	2	23.008	0.0048	18.3984
	611	1	23.0065	-0.0085	22.9979
	612	2	23.0019	0.0032	27.597
	613	2	23.0037	0.0014	32.1927
	614	1	22.9985	0.0029	36.8076
	615	1	22.9962	-0.0033	41.4066
	616	2	22.9993	0.0018	46.0063
	617	2	22.9993	4.6075	-0.0075
	618	2	22.9912	4.5968	4.6079
	619	1	23.0062	4.6008	9.2062
	620	2	22.9976	4.6001	13.7939
	621	2	22.9955	4.5942	18.3983
	622	2	22.9989	4.6009	23.004
	623	2	23.0051	4.5988	27.6065
	624	2	23.0056	4.6045	32.1921
	625	2	23.0007	4.5999	36.8085
	626	2	23.0028	4.6001	41.4083
	627	1	23.0087	4.6095	46.0003
	628	2	23.0021	9.2069	-0.0054
	629	2	23.0014	9.2001	4.6037
	630	2	23.0021	9.2087	9.1976
	631	2	23.0011	9.1974	13.7957
	632	2	23.0029	9.2093	18.3977
	633	2	22.9972	9.1959	22.9985
	634	1	23.0077	9.2067	27.5996
	635	2	22.9985	9.1901	32.2005
	636	1	22.9948	9.2089	36.7968
	637	2	22.9968	9.1988	41.4035
	638	1	22.9961	9.1988	45.9964
	639	2	22.9928	13.8013	-0.0066
	640	2	23.0047	13.7918	4.5935
	641	2	23.0048	13.8057	9.1978
	642	1	22.9974	13.7931	13.8023
	643	2	22.9939	13.7908	18.4013
	644	2	22.9942	13.7929	23.0013
	645	1	22.992	13.8086	27.6086
	646	2	23.0063	13.796	32.1979
	647	1	22.994	13.8026	36.7906
	648	2	23.0014	13.8082	41.3949
	649	2	22.997	13.8093	46.0054
	650	1	22.9904	18.4079	0.0001
	651	2	23.0005	18.3905	4.6064
	652	2	22.9924	18.409	9.1979
	653	1	22.9974	18.4016	13.8006
	654	2	23.0006	18.4055	18.4051
	655	1	22.9933	18.4075	23.0035
	656	1	22.9931	18.4092	27.5919
	657	2	23.0083	18.405	32.2072
	658	2	23.0063	18.404	36.8057
	659	2	22.9994	18.4094	41.4029
	660	2	23.0065	18.4087	45.9936
	661	2	22.9908	23.0	-0.0035
	662	2	22.9951	22.9988	4.6061
	663	2	22.9944	23.0067	9.1909
	664	2	22.9915	23.0046	13.7908
	665	1	23.0082	22.9958	18.3942
	666	2	23.0053	22.993	23.0046
	667	2	23.0082	22.9971	27.6079
	668	1	23.0016	23.0043	32.2071
	669	2	23.0088	22.9937	36.8027
	670	1	22.9936	22.9918	41.4027
	671	1	22.9993	23.0004	45.9996
	672	2	22.9996	27.6059	0.0067
	673	1	23.0022	27.5922	4.5991
	674	2	23.001	27.6041	9.2087
	675	1	22.9933	27.6087	13.8028
	676	2	22.9964	27.5967	18.404
	677	1	22.9955	27.5993	22.9922
	678	2	22.9922	27.6083	27.6038
	679	2	22.9944	27.6006	32.2042
	680	2	22.9989	27.5959	36.8046
	681	2	23.0009	27.6007	41.4086
	682	2	22.9921	27.6062	45.9974
	683	1	23.0099	32.2028	0.0061
	684	2	22.99	32.197	4.5997
	685	1	22.9988	32.1972	9.1963
	686	2	23.0053	32.2026	13.7971
	687	1	22.996	32.1978	18.4075
	688	1	23.0014	32.1911	23.0028
	689	2	22.9983	32.1903	27.5946
	690	2	23.0066	32.2095	32.1952
	691	1	22.9919	32.194	36.7941
	692	2	23.0019	32.2057	41.4055
	693	2	23.0029	32.1975	46.0064
	694	2	23.0054	36.8021	0.0072
	695	2	22.9993	36.8063	4.5985
	696	2	23.0061	36.7974	9.2002
	697	1	22.995	36.7966	13.7972
	698	2	23.0072	36.8068	18.395
	699	1	23.0018	36.797	22.9976
	700	2	22.9901	36.7909	27.601
	701	1	22.9993	36.7989	32.2062
	702	2	23.0082	36.7953	36.7962
	703	2	22.9932	36.7971	41.3976
	704	2	22.992	36.791	45.9902
	705	2	22.9978	41.4086	-0.0011
	706	1	22.9971	41.3934	4.6056
	707	2	23.0024	41.3966	9.2061
	708	1	22.9935	41.3978	13.8086
	709	1	22.9976	41.4015	18.3954
	710	1	23.0076	41.3902	23.0051
	711	2	22.997	41.4044	27.5999
	712	2	22.9937	41.3933	32.197
	713	2	23.0017	41.3992	36.8084
	714	2	23.0032	41.3911	41.4047
	715	2	23.01	41.3919	46.0075
	716	1	23.0085	45.9914	0.0081
	717	2	23.0021	45.993	4.5934
	718	1	22.9973	45.9958	9.2066
	719	2	23.0021	46.001	13.7968
	720	1	22.9954	46.0094	18.4096
	721	2	22.9987	45.9916	23.0099
	722	2	22.9981	45.9983	27.6033
	723	1	23.0023	45.9911	32.1913
	724	2	23.0033	45.9904	36.7955
	725	1	22.9978	45.9911	41.3956
	726	2	22.9979	46.0015	46.0087
	727	2	27.595	0.0062	0.0048
	728	2	27.6032	-0.0075	4.605
	729	2	27.5986	0.0042	9.1973
	730	2	27.6047	0.0024	13.8023
	731	2	27.6041	0.0073	18.4039
	732	2	27.5942	0.0097	22.9952
	733	1	27.6013	-0.0087	27.6063
	734	2	27.603	-0.0087	32.202
	735	1	27.6083	0.0088	36.8019
	736	2	27.5911	0.0037	41.4046
	737	2	27.591	-0.0016	46.0017
	738	1	27.5971	4.5934	0.0084
	739	2	27.5942	4.6063	4.605
	740	2	27.5937	4.6014	9.2057
	741	2	27.5994	4.5914	13.7943
	742	2	27.6015	4.5964	18.3935
	743	1	27.6005	4.6099	23.0022
	744	2	27.6084	4.5918	27.6081
	745	1	27.6051	4.5967	32.1922
	746	1	27.6097	4.6061	36.8092
	747	1	27.6092	4.595	41.3902
	748	2	27.5994	4.6086	46.0025
	749	2	27.5929	9.1991	0.0045
	750	2	27.5969	9.1943	4.6044
	751	2	27.6061	9.2095	9.1942
	752	1	27.5905	9.1966	13.8095
	753	2	27.6095	9.204	18.3958
	754	2	27.6007	9.2089	22.9999
	755	2	27.5981	9.21	27.6008
	756	1	27.5932	9.1948	32.2048
	757	2	27.5977	9.1987	36.7918
	758	1	27.5935	9.1995	41.3952
	759	2	27.5975	9.1915	45.9929
	760	2	27.5936	13.7905	0.0092
	761	2	27.597	13.7913	4.5938
	762	2	27.5975	13.799	9.196
	763	1	27.604	13.8097	13.7967
	764	2	27.5911	13.7919	18.3906
	765	2	27.6099	13.8049	22.9974
	766	1	27.6004	13.7913	27.6031
	767	2	27.596	13.8053	32.1919
	768	2	27.5954	13.8098	36.7978
	769	2	27.6071	13.8083	41.3962
	770	2	27.5986	13.7946	45.9905
	771	2	27.6071	18.4052	0.0021
	772	2	27.5927	18.3965	4.6074
	773	1	27.6048	18.3924	9.21
	774	1	27.6097	18.3975	13.7993
	775	2	27.5937	18.3945	18.3965
	776	2	27.601	18.3961	23.0044
	777	2	27.6073	18.4005	27.5921
	778	2	27.6063	18.391	32.2054
	779	2	27.6038	18.404	36.8038
	780	2	27.6069	18.4086	41.3959
	781	1	27.6098	18.3971	45.9987
	782	2	27.6042	22.9957	0.0019
	783	2	27.5931	22.9931	4.6007
	784	1	27.594	23.0087	9.2043
	785	2	27.6002	22.9976	13.7936
	786	2	27.6063	23.0053	18.3919
	787	2	27.6026	22.9903	23.0043
	788	1	27.5985	23.0003	27.6011
	789	1	27.5947	22.9963	32.2033
	790	2	27.5987	23.0016	36.808
	791	2	27.6004	23.0076	41.3915
	792	2	27.6037	22.9974	46.0096
	793	2	27.6018	27.5901	-0.0094
	794	2	27.6004	27.5904	4.5992
	795	1	27.6095	27.6003	9.2037
	796	2	27.5951	27.6004	13.8005
	797	2	27.5907	27.5965	18.4073
	798	2	27.5989	27.6036	23.0085
	799	2	27.6009	27.5931	27.6027
	800	1	27.5976	27.5951	32.203
	801	2	27.5906	27.5951	36.799
	802	2	27.593	27.6	41.4089
	803	2	27.6056	27.592	45.9949
	804	1	27.5943	32.1923	0.0088
	805	1	27.6025	32.2006	4.5913
	806	1	27.607	32.1996	9.1945
	807	2	27.6087	32.2023	13.8056
	808	2	27.591	32.2004	18.3982
	809	1	27.5963	32.2055	23.004
	810	2	27.6001	32.1907	27.6048
	811	2	27.592	32.1942	32.1912
	812	2	27.5989	32.1923	36.7923
	813	2	27.6033	32.2091	41.3909
	814	2	27.5934	32.1909	45.9963
	815	2	27.6075	36.8081	-0.0024
	816	2	27.6016	36.8083	4.5979
	817	2	27.6084	36.8037	9.1917
	818	2	27.5922	36.7912	13.7986
	819	2	27.601	36.7926	18.4025
	820	2	27.6052	36.7937	22.9963
	821	1	27.5957	36.7976	27.6003
	822	1	27.5955	36.8094	32.1922
	823	2	27.5958	36.7945	36.8003
	824	2	27.6082	36.802	41.4058
	825	2	27.5946	36.8004	46.0008
	826	2	27.5954	41.3969	-0.0094
	827	1	27.6045	41.4051	4.6092
	828	1	27.5906	41.3903	9.2046
	829	2	27.5916	41.3957	13.8003
	830	2	27.6016	41.4019	18.3969
	831	2	27.6097	41.4089	23.0061
	832	1	27.6051	41.4041	27.5939
	833	2	27.5957	41.3958	32.1977
	834	1	27.5973	41.4076	36.7971
	835	1	27.6052	41.3914	41.4007
	836	2	27.5968	41.4044	45.9969
	837	2	27.598	45.9938	0.0077
	838	1	27.5962	46.0019	4.597
	839	2	27.5931	46.0039	9.2038
	840	1	27.6013	45.9973	13.8046
	841	2	27.6078	46.0006	18.4068
	842	2	27.6065	45.9962	23.0019
	843	2	27.5942	46.0067	27.6074
	844	1	27.5912	46.0082	32.2088
	845	2	27.6056	46.0024	36.8003
	846	1	27.597	46.0026	41.4094
	847	1	27.5934	46.0076	45.9976
	848	1	32.2078	-0.0065	-0.0081
	849	2	32.208	0.0057	4.6016
	850	2	32.1948	0.0029	9.196
	851	2	32.1999	-0.0085	13.7917
	852	2	32.2029	-0.0049	18.3993
	853	2	32.2012	-0.0019	23.0018
	854	1	32.2072	-0.0006	27.6062
	855	2	32.1922	0.0076	32.2053
	856	2	32.2008	0.0061	36.7979
	857	1	32.1973	0.0066	41.3995
	858	2	32.1988	0.0055	45.9915
	859	2	32.2087	4.5933	-0.009
	860	1	32.1962	4.5939	4.6095
	861	2	32.2097	4.6023	9.2045
	862	1	32.197	4.5979	13.7924
	863	2	32.2008	4.5971	18.4033
	864	1	32.1975	4.5994	23.0019
	865	2	32.2084	4.6028	27.5973
	866	2	32.1917	4.6026	32.2094
	867	1	32.2018	4.5919	36.8052
	868	2	32.2029	4.5974	41.3963
	869	1	32.1963	4.5928	46.0067
	870	2	32.2062	9.1981	-0.0081
	871	2	32.2008	9.2006	4.594
	872	2	32.2059	9.2003	9.2023
	873	1	32.1985	9.2031	13.7998
	874	1	32.1906	9.2035	18.3938
	875	2	32.1984	9.2038	23.0056
	876	2	32.2063	9.2017	27.5966
	877	2	32.1973	9.2064	32.191
	878	2	32.2024	9.2016	36.8044
	879	2	32.202	9.2038	41.4093
	880	1	32.2059	9.1982	46.0012
	881	2	32.1907	13.7949	0.0027
	882	2	32.1966	13.7915	4.5968
	883	2	32.1962	13.7967	9.2022
	884	2	32.2069	13.7956	13.7956
	885	2	32.1936	13.791	18.4074
	886	2	32.2027	13.7902	23.0016
	887	2	32.2048	13.8053	27.5968
	888	2	32.19	13.8036	32.1955
	889	2	32.2085	13.8095	36.8033
	890	2	32.1903	13.806	41.3934
	891	2	32.1933	13.8099	46.0088
	892	2	32.1917	18.4074	0.0066
	893	1	32.1932	18.4055	4.6029
	894	2	32.197	18.4085	9.2062
	895	2	32.2054	18.397	13.8033
	896	1	32.2081	18.4037	18.3923
	897	2	32.2017	18.4068	23.0074
	898	2	32.2088	18.3994	27.607
	899	2	32.2076	18.4097	32.2066
	900	2	32.2051	18.4039	36.797
	901	2	32.2017	18.4056	41.3982
	902	2	32.2078	18.3993	45.9991
	903	2	32.2073	22.9973	0.0002
	904	2	32.2098	23.0027	4.5936
	905	2	32.1954	23.009	9.194
	906	2	32.2003	23.0052	13.8024
	907	1	32.1993	23.0053	18.3956
	908	2	32.1982	22.9966	22.9972
	909	2	32.1966	23.0068	27.593
	910	1	32.2081	22.991	32.2027
	911	2	32.2003	22.9989	36.8037
	912	1	32.2081	22.9912	41.3939
	913	1	32.1911	22.9969	46.0022
	914	2	32.1921	27.6033	0.0008
	915	2	32.2046	27.6018	4.6057
	916	2	32.1978	27.6096	9.2022
	917	1	32.2041	27.6016	13.8026
	918	2	32.1945	27.5971	18.4044
	919	2	32.199	27.6013	22.9944
	920	2	32.1934	27.6054	27.6033
	921	2	32.2066	27.5918	32.1957
	922	1	32.1993	27.6039	36.8085
	923	2	32.1912	27.5961	41.3977
	924	2	32.1912	27.5982	46.0072
	925	2	32.1913	32.1934	0.0056
	926	1	32.1925	32.1984	4.6003
	927	2	32.1959	32.2086	9.1935
	928	1	32.1952	32.2019	13.8003
	929	2	32.1997	32.21	18.3957
	930	2	32.1991	32.209	23.0053
	931	1	32.1964	32.1987	27.6069
	932	2	32.2023	32.1948	32.198
	933	2	32.2041	32.1945	36.7918
	934	2	32.2017	32.2042	41.3925
	935	2	32.2	32.1959	45.9986
	936	1	32.21	36.8071	0.0026
	937	1	32.1913	36.7974	4.6099
	938	2	32.1907	36.7993	9.1977
	939	1	32.2019	36.8042	13.7953
	940	1	32.1989	36.8072	18.4089
	941	2	32.2016	36.8077	22.999
	942	1	32.1928	36.7938	27.5927
	943	2	32.1967	36.8057	32.1907
	944	1	32.2013	36.7976	36.7931
	945	2	32.2016	36.7941	41.4047
	946	1	32.1943	36.8094	46.0015
	947	2	32.2013	41.4036	-0.0022
	948	1	32.1962	41.4034	4.6063
	949	1	32.1964	41.3935	9.1934
	950	2	32.1972	41.407	13.7988
	951	2	32.2062	41.3946	18.4064
	952	2	32.194	41.4083	23.0072
	953	1	32.2069	41.393	27.5978
	954	1	32.2041	41.3999	32.2094
	955	2	32.204	41.3974	36.7972
	956	1	32.209	41.3982	41.4033
	957	2	32.2046	41.397	46.0059
	958	2	32.2002	45.9915	-0.0058
	959	2	32.2097	45.9989	4.5965
	960	2	32.2077	46.0035	9.1963
	961	2	32.2018	46.004	13.7933
	962	2	32.2055	46.002	18.3962
	963	1	32.2084	45.9913	23.0015
	964	2	32.1995	45.9974	27.593
	965	2	32.1998	46.0054	32.2077
	966	1	32.2079	46.0053	36.8041
	967	2	32.1992	45.9987	41.3929
	968	1	32.2037	45.9973	46.0023
	969	2	36.8037	0.0073	-0.0018
	970	2	36.7973	0.0007	4.608
	971	1	36.8063	-0.0027	9.1965
	972	2	36.8015	-0.0032	13.8091
	973	1	36.7987	0.0095	18.397
	974	2	36.7939	0.0008	22.9966
	975	1	36.8025	0.0056	27.5928
	976	1	36.8042	0.0097	32.2032
	977	1	36.8029	0.0041	36.7933
	978	1	36.7964	-0.0004	41.4068
	979	2	36.8073	-0.0042	46.0072
	980	2	36.7956	4.606	0.0013
	981	1	36.7905	4.6061	4.6042
	982	1	36.795	4.6068	9.1978
	983	1	36.7964	4.5905	13.7968
	984	1	36.8099	4.5969	18.4071
	985	2	36.7907	4.5931	22.9964
	986	2	36.7912	4.6047	27.6046
	987	1	36.8043	4.6066	32.198
	988	2	36.8097	4.6057	36.8053
	989	2	36.8073	4.6035	41.3918
	990	1	36.7976	4.598	45.9965
	991	2	36.8063	9.1974	-0.0033
	992	2	36.7934	9.1914	4.6021
	993	2	36.8015	9.2097	9.2067
	994	2	36.7906	9.2097	13.8083
	995	1	36.8016	9.1957	18.3906
	996	1	36.8006	9.1953	22.9978
	997	2	36.8001	9.1986	27.6083
	998	2	36.7923	9.203	32.1947
	999	1	36.8088	9.2008	36.7956