Nickle Copper Simulation

3430 	atoms
0 	bonds
0 	angles
0 	dihedrals
0 	impropers

2	atom types
0	bond types
0	angle types
0	dihedral types
0	improper types

-0.02	41.42	xlo xhi
-0.02	41.42	ylo yhi
-0.02	41.42	zlo zhi

Atoms

	1	1	0.0058	0.0043	-0.002
	2	1	0.0013	-0.0033	4.5956
	3	1	0.0	-0.0048	9.1903
	4	2	0.0087	0.0018	13.7931
	5	1	-0.0079	-0.0017	18.3951
	6	2	-0.0075	0.0083	22.9945
	7	1	-0.0029	0.0019	27.5948
	8	2	0.0004	0.0006	32.2081
	9	2	0.001	-0.0087	36.8025
	10	2	-0.0086	-0.0099	41.3959
	11	2	-0.0088	4.5985	-0.0043
	12	2	0.0019	4.5939	4.6014
	13	2	0.0076	4.6008	9.1987
	14	2	-0.006	4.595	13.7936
	15	2	-0.0017	4.6074	18.3961
	16	2	-0.0075	4.6055	22.9992
	17	2	-0.0004	4.6016	27.5969
	18	1	-0.0096	4.598	32.199
	19	2	-0.0033	4.6096	36.8044
	20	2	0.0018	4.6002	41.3972
	21	2	-0.0017	9.2006	-0.0022
	22	2	0.0007	9.1937	4.6086
	23	2	0.0091	9.2079	9.1992
	24	2	0.0048	9.1952	13.7913
	25	2	0.0009	9.1941	18.4051
	26	1	0.0029	9.209	22.9995
	27	2	-0.0087	9.1925	27.6079
	28	1	0.0006	9.209	32.2011
	29	1	0.0017	9.203	36.8012
	30	1	-0.0058	9.2028	41.394
	31	2	-0.005	13.804	-0.0027
	32	2	0.0089	13.7982	4.5913
	33	1	0.0045	13.8024	9.2028
	34	2	0.0055	13.8006	13.8041
	35	1	-0.0009	13.7998	18.4098
	36	2	-0.0069	13.8014	22.9917
	37	2	-0.0069	13.8041	27.5905
	38	2	0.0046	13.7929	32.1902
	39	1	0.0001	13.7973	36.7964
	40	1	0.0097	13.8004	41.3953
	41	2	0.0051	18.4003	0.0011
	42	1	-0.0074	18.3996	4.6082
	43	1	0.0041	18.4085	9.2026
	44	2	-0.0074	18.406	13.8012
	45	2	-0.0017	18.4084	18.4041
	46	2	0.0057	18.3981	22.9986
	47	2	-0.0045	18.4047	27.5948
	48	2	0.0002	18.4097	32.1984
	49	1	-0.0079	18.4005	36.8011
	50	2	0.0091	18.3926	41.4036
	51	2	-0.008	22.9989	0.0007
	52	2	-0.0059	22.9997	4.6052
	53	2	0.0099	22.996	9.2071
	54	2	-0.0051	22.9914	13.7907
	55	2	0.0047	22.9929	18.3954
	56	1	0.0095	23.0099	22.9936
	57	2	0.0068	23.0047	27.5937
	58	1	-0.0075	22.9949	32.1988
	59	2	-0.0068	22.9915	36.8043
	60	2	0.0011	23.0016	41.3954
	61	2	-0.0065	27.6066	0.0027
	62	2	0.0024	27.5972	4.6094
	63	2	0.0039	27.5953	9.2028
	64	1	-0.0017	27.6026	13.8074
	65	1	-0.0066	27.6028	18.4072
	66	2	0.0062	27.6038	22.9969
	67	2	-0.0085	27.6086	27.6019
	68	2	0.0057	27.6001	32.2052
	69	1	0.0093	27.5965	36.7914
	70	2	0.0071	27.5945	41.4073
	71	1	0.0044	32.2028	0.0054
	72	2	-0.0034	32.2085	4.5948
	73	2	0.0064	32.2061	9.1987
	74	2	-0.0047	32.1955	13.7989
	75	2	-0.0031	32.207	18.3911
	76	1	0.0093	32.2024	23.0008
	77	2	-0.0083	32.2002	27.6093
	78	2	0.0033	32.2063	32.1959
	79	2	-0.0073	32.1986	36.7976
	80	1	0.0017	32.1963	41.4013
	81	2	-0.0076	36.8061	-0.0071
	82	1	0.0076	36.7994	4.5994
	83	1	0.0016	36.7903	9.2027
	84	1	0.0046	36.8035	13.8042
	85	2	-0.0007	36.8017	18.3943
	86	2	0.0038	36.7928	23.0037
	87	1	-0.0094	36.7967	27.5943
	88	2	0.0094	36.7954	32.198
	89	1	-0.0077	36.805	36.7935
	90	2	0.0013	36.7983	41.3928
	91	2	-0.0068	41.3957	-0.0047
	92	1	-0.0051	41.3945	4.6097
	93	2	0.0067	41.4049	9.2008
	94	1	-0.0058	41.4001	13.8038
	95	2	0.0028	41.4057	18.3955
	96	1	-0.0024	41.3983	23.002
	97	2	0.0006	41.403	27.6053
	98	1	-0.0094	41.3961	32.1918
	99	2	-0.0012	41.4031	36.8079
	100	1	-0.0068	41.3936	41.3935
	101	2	4.5902	0.0049	0.0079
	102	1	4.5903	0.0014	4.5937
	103	1	4.5925	0.0018	9.2066
	104	2	4.6002	-0.0099	13.7986
	105	2	4.6063	-0.004	18.4004
	106	2	4.5901	0.0093	22.9936
	107	2	4.6067	0.0053	27.601
	108	1	4.6067	-0.0048	32.2057
	109	1	4.6032	-0.0005	36.8004
	110	1	4.6072	0.0065	41.3918
	111	2	4.5913	4.5909	-0.01
	112	1	4.5937	4.6051	4.5945
	113	1	4.5981	4.6086	9.2095
	114	1	4.604	4.6068	13.8003
	115	1	4.6095	4.6042	18.4047
	116	1	4.5986	4.5924	23.0043
	117	2	4.6005	4.6097	27.6072
	118	2	4.6004	4.6098	32.1932
	119	1	4.6075	4.6069	36.7917
	120	2	4.6029	4.6071	41.3926
	121	2	4.5929	9.1924	0.0025
	122	2	4.6083	9.1972	4.5927
	123	2	4.5996	9.1924	9.2039
	124	2	4.5961	9.1996	13.8078
	125	2	4.593	9.2053	18.408
	126	2	4.6035	9.2017	22.9931
	127	2	4.5928	9.1979	27.5907
	128	1	4.5947	9.194	32.2027
	129	2	4.5981	9.1913	36.8053
	130	2	4.6001	9.2005	41.4068
	131	2	4.5926	13.8067	-0.0008
	132	1	4.5923	13.807	4.5982
	133	2	4.5931	13.7953	9.1918
	134	2	4.5957	13.8038	13.8048
	135	1	4.6088	13.7907	18.4095
	136	1	4.6084	13.8064	23.0035
	137	1	4.6046	13.7909	27.5986
	138	2	4.5904	13.805	32.1913
	139	1	4.6028	13.8075	36.8009
	140	2	4.6063	13.802	41.4048
	141	2	4.5909	18.3961	0.0089
	142	2	4.5982	18.4016	4.592
	143	2	4.6083	18.3971	9.2076
	144	2	4.6041	18.4068	13.8094
	145	2	4.6039	18.4051	18.3999
	146	2	4.6036	18.4043	22.9904
	147	2	4.5913	18.3949	27.6075
	148	2	4.599	18.3936	32.2062
	149	2	4.5991	18.3992	36.7976
	150	2	4.591	18.4093	41.4074
	151	2	4.6038	22.9974	0.0017
	152	1	4.6083	23.0059	4.594
	153	2	4.5959	23.0034	9.1956
	154	2	4.592	22.9931	13.7925
	155	2	4.5975	23.0003	18.4012
	156	1	4.5963	23.0012	22.9989
	157	2	4.5982	22.9992	27.6046
	158	1	4.6083	23.0017	32.1944
	159	1	4.608	23.0038	36.7922
	160	2	4.5988	22.9992	41.3932
	161	2	4.5963	27.5948	0.0053
	162	1	4.5976	27.6019	4.6053
	163	2	4.6091	27.6009	9.1911
	164	1	4.6065	27.5903	13.7989
	165	2	4.6014	27.6012	18.3913
	166	2	4.6082	27.5922	23.004
	167	1	4.6014	27.5973	27.6083
	168	1	4.6056	27.6053	32.2002
	169	2	4.5987	27.6095	36.7977
	170	2	4.6047	27.5988	41.3995
	171	1	4.597	32.2005	-0.005
	172	2	4.5948	32.197	4.5996
	173	2	4.6057	32.2065	9.2053
	174	2	4.6006	32.2053	13.8086
	175	2	4.5908	32.1983	18.4013
	176	2	4.5981	32.1999	22.994
	177	1	4.6086	32.2051	27.5942
	178	2	4.6084	32.2005	32.1939
	179	2	4.592	32.195	36.8054
	180	2	4.6077	32.1959	41.4043
	181	1	4.5994	36.8036	0.006
	182	1	4.6051	36.8048	4.5917
	183	2	4.5941	36.7926	9.1963
	184	1	4.6025	36.7937	13.8034
	185	2	4.6094	36.8039	18.3945
	186	2	4.5949	36.8068	23.0044
	187	2	4.5992	36.7979	27.593
	188	2	4.6063	36.8011	32.1992
	189	2	4.6008	36.809	36.8022
	190	2	4.5979	36.7962	41.3949
	191	2	4.599	41.4001	-0.0013
	192	1	4.6059	41.3976	4.5942
	193	2	4.5955	41.3964	9.1922
	194	2	4.6079	41.3924	13.8014
	195	2	4.6028	41.398	18.4007
	196	2	4.6013	41.3917	22.9979
	197	2	4.6083	41.3947	27.6064
	198	1	4.5909	41.3958	32.1948
	199	2	4.6085	41.4052	36.797
	200	2	4.599	41.3939	41.4068
	201	2	9.2042	-0.0027	0.0042
	202	2	9.197	-0.0062	4.5945
	203	1	9.2085	0.0017	9.194
	204	2	9.191	-0.0016	13.8097
	205	2	9.1971	0.005	18.3974
	206	1	9.2085	-0.0001	23.0022
	207	2	9.194	0.0067	27.5928
	208	2	9.2097	0.0084	32.1962
	209	1	9.2032	0.0073	36.8099
	210	1	9.1998	-0.0073	41.3971
	211	1	9.2032	4.5997	0.0035
	212	2	9.1972	4.6048	4.5937
	213	2	9.201	4.6016	9.1928
	214	2	9.2062	4.5982	13.802
	215	2	9.2003	4.6003	18.4069
	216	1	9.1996	4.5929	23.0095
	217	2	9.2064	4.608	27.5987
	218	1	9.2004	4.5959	32.2062
	219	1	9.2	4.5913	36.8043
	220	2	9.2029	4.6024	41.3978
	221	2	9.2076	9.2026	0.006
	222	1	9.1969	9.1908	4.5918
	223	2	9.2031	9.2055	9.2096
	224	2	9.2022	9.1943	13.7974
	225	2	9.2087	9.2018	18.4066
	226	2	9.2014	9.2064	23.0084
	227	2	9.1962	9.1959	27.5954
	228	2	9.1906	9.2052	32.1935
	229	2	9.1914	9.2086	36.7968
	230	1	9.2048	9.1957	41.4047
	231	1	9.2006	13.7902	0.0062
	232	2	9.2035	13.8046	4.6017
	233	2	9.2022	13.8006	9.2087
	234	2	9.1951	13.8099	13.7986
	235	1	9.1912	13.7942	18.3957
	236	2	9.1936	13.8091	23.0041
	237	1	9.1929	13.7975	27.5988
	238	2	9.209	13.7951	32.1965
	239	1	9.2039	13.7997	36.7981
	240	2	9.1995	13.7907	41.4037
	241	2	9.2053	18.4024	0.0006
	242	2	9.1979	18.3953	4.5947
	243	2	9.2048	18.3966	9.1996
	244	2	9.1947	18.4046	13.7923
	245	1	9.2098	18.402	18.4097
	246	2	9.198	18.4091	23.0089
	247	2	9.1924	18.4002	27.5948
	248	2	9.2088	18.395	32.2034
	249	2	9.1908	18.3917	36.7907
	250	2	9.191	18.3999	41.4049
	251	2	9.1972	22.9968	0.0036
	252	1	9.1997	22.9939	4.6073
	253	2	9.1978	23.0043	9.2011
	254	2	9.1903	22.9905	13.7914
	255	2	9.1917	22.9985	18.3931
	256	2	9.1944	22.9909	22.9911
	257	2	9.2066	23.0078	27.5985
	258	2	9.1942	23.0056	32.1971
	259	1	9.1935	22.9927	36.8066
	260	2	9.1916	22.9982	41.395
	261	1	9.2084	27.5979	-0.0074
	262	2	9.2001	27.5925	4.602
	263	2	9.2077	27.5938	9.1966
	264	2	9.199	27.6079	13.802
	265	1	9.1951	27.5949	18.4056
	266	1	9.1965	27.5994	23.0032
	267	2	9.2084	27.6034	27.6082
	268	2	9.1903	27.5927	32.1925
	269	2	9.1905	27.5926	36.8052
	270	2	9.1914	27.5962	41.3967
	271	1	9.1917	32.2019	0.0049
	272	2	9.1949	32.2007	4.5981
	273	1	9.2085	32.2071	9.195
	274	2	9.204	32.2027	13.7933
	275	2	9.2014	32.2029	18.3936
	276	2	9.1902	32.202	23.0056
	277	2	9.1991	32.2039	27.5939
	278	2	9.1916	32.1929	32.1961
	279	2	9.1904	32.1984	36.8043
	280	2	9.2037	32.1973	41.4056
	281	2	9.1915	36.7905	-0.0021
	282	2	9.2	36.8008	4.5987
	283	2	9.2062	36.8077	9.2029
	284	2	9.1951	36.7968	13.7957
	285	2	9.2002	36.8082	18.4032
	286	2	9.1933	36.8048	22.9935
	287	2	9.1976	36.8017	27.6016
	288	2	9.2047	36.7964	32.1995
	289	2	9.2031	36.7923	36.8071
	290	1	9.1948	36.803	41.3964
	291	1	9.2039	41.4053	-0.0093
	292	2	9.2009	41.4078	4.6077
	293	1	9.2004	41.3954	9.1908
	294	2	9.2085	41.4042	13.8075
	295	2	9.2026	41.394	18.4033
	296	2	9.2011	41.4098	23.0018
	297	2	9.1923	41.391	27.6097
	298	1	9.2086	41.4003	32.1983
	299	2	9.1942	41.4088	36.8044
	300	2	9.1998	41.4094	41.3978
	301	2	13.792	0.0073	0.0019
	302	2	13.7964	-0.0003	4.6006
	303	2	13.7938	-0.0001	9.2061
	304	2	13.8046	0.0054	13.8086
	305	2	13.7938	0.0002	18.4006
	306	2	13.8031	-0.0043	23.0074
	307	2	13.8058	-0.0023	27.6058
	308	2	13.794	-0.0033	32.194
	309	2	13.8069	0.0001	36.7916
	310	1	13.7949	0.009	41.4022
	311	2	13.8013	4.5974	-0.0062
	312	2	13.8081	4.6096	4.5974
	313	1	13.8066	4.6024	9.1922
	314	1	13.8061	4.5989	13.8001
	315	1	13.7908	4.6041	18.4074
	316	1	13.8029	4.6059	22.9906
	317	2	13.8023	4.5913	27.5937
	318	1	13.8017	4.5927	32.1913
	319	2	13.8008	4.596	36.81
	320	1	13.7992	4.6051	41.4068
	321	2	13.7909	9.2057	-0.0058
	322	2	13.7979	9.2041	4.5947
	323	2	13.8076	9.2061	9.1997
	324	2	13.8013	9.2002	13.7966
	325	1	13.7963	9.2044	18.4066
	326	2	13.8036	9.1991	23.0039
	327	2	13.7942	9.2007	27.5979
	328	2	13.7963	9.1906	32.2022
	329	1	13.7951	9.191	36.7915
	330	2	13.8023	9.2068	41.3921
	331	2	13.8069	13.8091	-0.002
	332	2	13.8035	13.7912	4.5955
	333	2	13.7987	13.7971	9.2017
	334	2	13.7935	13.8084	13.7987
	335	2	13.7956	13.8072	18.3967
	336	2	13.7989	13.8002	23.0093
	337	1	13.801	13.8058	27.595
	338	1	13.7906	13.8023	32.1978
	339	1	13.7932	13.803	36.8033
	340	2	13.8049	13.8011	41.4073
	341	2	13.8074	18.3969	-0.0055
	342	2	13.794	18.4095	4.59
	343	2	13.809	18.4007	9.1974
	344	2	13.7969	18.3909	13.8029
	345	2	13.7915	18.403	18.3942
	346	2	13.808	18.4027	23.0017
	347	2	13.8041	18.3983	27.5906
	348	2	13.7953	18.4029	32.1909
	349	2	13.7998	18.3913	36.7944
	350	1	13.8059	18.4022	41.3929
	351	1	13.7957	22.9945	0.0055
	352	2	13.7908	23.0066	4.6029
	353	2	13.7948	23.0091	9.2081
	354	1	13.7909	23.0007	13.7917
	355	2	13.7942	23.004	18.4072
	356	2	13.8072	23.0055	23.0081
	357	2	13.8006	22.9948	27.6013
	358	2	13.7929	22.9911	32.1969
	359	2	13.7983	22.9938	36.7995
	360	1	13.8046	23.0071	41.3957
	361	1	13.8092	27.5982	-0.0046
	362	1	13.8075	27.6	4.6003
	363	2	13.8025	27.6058	9.2081
	364	1	13.8021	27.6094	13.8032
	365	1	13.7976	27.607	18.4078
	366	2	13.7961	27.6056	22.9921
	367	1	13.8069	27.5917	27.5927
	368	2	13.8098	27.6049	32.2026
	369	1	13.8039	27.6003	36.8008
	370	1	13.7911	27.6087	41.3957
	371	2	13.805	32.2093	0.0085
	372	2	13.8006	32.1959	4.6069
	373	2	13.7914	32.1935	9.2006
	374	2	13.8027	32.1906	13.7918
	375	2	13.8011	32.1945	18.3927
	376	2	13.8091	32.2004	22.992
	377	2	13.8087	32.2038	27.5953
	378	2	13.7987	32.1935	32.2084
	379	1	13.8096	32.2088	36.7901
	380	2	13.808	32.201	41.4093
	381	2	13.8028	36.8046	-0.0045
	382	1	13.796	36.8035	4.5956
	383	1	13.7905	36.8048	9.2049
	384	2	13.7937	36.8056	13.7945
	385	2	13.8017	36.7988	18.4059
	386	2	13.8069	36.795	23.0039
	387	2	13.7995	36.8014	27.5945
	388	2	13.8012	36.7925	32.2085
	389	1	13.8011	36.7957	36.8014
	390	2	13.8002	36.7955	41.4001
	391	2	13.7969	41.4076	-0.0042
	392	2	13.8076	41.3979	4.5976
	393	2	13.7997	41.3977	9.2013
	394	1	13.8	41.4015	13.8028
	395	2	13.7967	41.4005	18.4078
	396	1	13.8062	41.3966	22.9914
	397	1	13.796	41.3926	27.6017
	398	2	13.8073	41.4022	32.2049
	399	2	13.7917	41.4005	36.7941
	400	2	13.804	41.4087	41.4043
	401	2	18.4072	0.0073	-0.0068
	402	2	18.3962	0.0089	4.59
	403	1	18.3935	-0.0084	9.2045
	404	2	18.3979	0.0064	13.7949
	405	2	18.4003	0.0072	18.4096
	406	1	18.4044	0.0067	22.9929
	407	1	18.409	-0.0018	27.6056
	408	2	18.4095	0.0021	32.1951
	409	2	18.3931	-0.0096	36.8058
	410	2	18.4078	-0.0084	41.3948
	411	2	18.3996	4.6037	0.0034
	412	2	18.3999	4.6058	4.6038
	413	1	18.3971	4.5927	9.2008
	414	2	18.4059	4.5942	13.8086
	415	2	18.3932	4.6077	18.4006
	416	2	18.3991	4.5956	23.0089
	417	2	18.3916	4.5906	27.5946
	418	2	18.3995	4.6027	32.2091
	419	1	18.3971	4.5996	36.8036
	420	2	18.4084	4.5907	41.3972
	421	1	18.3933	9.1935	0.0027
	422	1	18.3986	9.1906	4.5942
	423	2	18.4094	9.2	9.1946
	424	2	18.3996	9.1966	13.8079
	425	2	18.406	9.2063	18.3938
	426	2	18.3981	9.1987	23.0048
	427	2	18.3994	9.2079	27.5991
	428	2	18.3977	9.2067	32.1978
	429	2	18.407	9.2087	36.8054
	430	2	18.3907	9.2011	41.398
	431	1	18.396	13.791	0.0038
	432	2	18.4061	13.8024	4.6072
	433	2	18.4094	13.8054	9.1905
	434	2	18.4047	13.8065	13.7907
	435	2	18.4043	13.7936	18.4038
	436	2	18.4033	13.7927	23.0027
	437	1	18.3985	13.7986	27.5916
	438	1	18.3923	13.7903	32.1911
	439	2	18.395	13.8083	36.8066
	440	1	18.4002	13.8071	41.4086
	441	2	18.4098	18.4064	-0.0063
	442	2	18.3984	18.4092	4.5905
	443	2	18.4057	18.4056	9.2018
	444	2	18.4061	18.4051	13.8052
	445	2	18.3946	18.3975	18.4072
	446	2	18.3904	18.3912	23.0024
	447	1	18.3947	18.401	27.5956
	448	2	18.4014	18.401	32.1958
	449	2	18.3994	18.3952	36.7961
	450	1	18.4017	18.4016	41.4032
	451	1	18.4087	22.9903	0.0074
	452	2	18.4096	22.9972	4.6013
	453	2	18.3947	22.9908	9.1965
	454	2	18.4033	22.9958	13.8035
	455	2	18.3916	22.9996	18.4098
	456	2	18.4033	23.0072	22.9931
	457	2	18.3957	23.0066	27.6044
	458	2	18.3971	22.9939	32.1939
	459	1	18.39	23.0091	36.8049
	460	2	18.4017	22.9973	41.3904
	461	2	18.3955	27.6023	0.0015
	462	2	18.4032	27.5908	4.603
	463	2	18.3955	27.6045	9.2087
	464	2	18.3941	27.603	13.7938
	465	2	18.4085	27.5953	18.4086
	466	2	18.3967	27.6035	22.9912
	467	2	18.4022	27.5914	27.5909
	468	2	18.3912	27.6035	32.1974
	469	1	18.3921	27.5938	36.7971
	470	2	18.4002	27.5913	41.394
	471	1	18.4039	32.1907	0.0053
	472	1	18.4003	32.2029	4.6092
	473	2	18.3903	32.207	9.1978
	474	2	18.3976	32.1935	13.8084
	475	1	18.3918	32.1909	18.3989
	476	2	18.3982	32.2064	23.0023
	477	1	18.3935	32.2046	27.6045
	478	1	18.394	32.1948	32.1904
	479	2	18.4046	32.2025	36.7947
	480	2	18.4018	32.2004	41.4086
	481	2	18.3957	36.8033	-0.0044
	482	2	18.392	36.7984	4.5923
	483	2	18.3958	36.8086	9.2005
	484	1	18.4022	36.799	13.7944
	485	2	18.4013	36.7908	18.403
	486	1	18.4003	36.8084	23.0088
	487	2	18.4065	36.8024	27.6086
	488	1	18.3956	36.8085	32.2067
	489	1	18.394	36.8085	36.8086
	490	1	18.4032	36.8032	41.4034
	491	2	18.4043	41.3994	0.0013
	492	2	18.397	41.4073	4.5976
	493	1	18.3936	41.4084	9.1984
	494	1	18.3953	41.4061	13.7963
	495	1	18.4093	41.4097	18.394
	496	2	18.3949	41.3945	23.004
	497	2	18.398	41.3992	27.6038
	498	2	18.392	41.4006	32.2046
	499	2	18.3938	41.3916	36.8082
	500	2	18.4071	41.4014	41.4021
	501	1	22.9943	-0.0011	-0.0085
	502	2	23.0063	-0.0098	4.5932
	503	1	23.0038	-0.0043	9.1961
	504	1	22.9932	0.0048	13.803
	505	2	22.9986	-0.0049	18.4
	506	2	23.0054	0.0047	22.9982
	507	2	23.009	-0.0097	27.608
	508	2	22.9905	0.0052	32.2038
	509	2	23.0031	0.0076	36.7925
	510	2	22.9934	0.0072	41.3934
	511	2	22.9946	4.6024	0.0032
	512	2	22.9959	4.5935	4.5922
	513	2	23.0017	4.5968	9.207
	514	2	22.9943	4.6003	13.808
	515	2	22.9903	4.5944	18.4053
	516	2	23.0006	4.6022	23.009
	517	2	23.0098	4.6058	27.5975
	518	2	22.9911	4.595	32.1928
	519	2	22.9956	4.5924	36.805
	520	2	22.9963	4.5964	41.401
	521	1	23.0014	9.1945	0.0052
	522	1	22.9952	9.1966	4.5967
	523	2	22.9994	9.2014	9.1907
	524	2	22.9905	9.1905	13.8095
	525	2	23.0058	9.1958	18.3942
	526	1	23.0052	9.1914	23.0075
	527	2	23.0023	9.2058	27.5982
	528	1	23.0039	9.1982	32.2021
	529	2	23.0095	9.1922	36.8092
	530	2	22.9932	9.1939	41.4041
	531	2	22.9953	13.7956	-0.0042
	532	2	23.0094	13.7991	4.5937
	533	1	23.0022	13.7945	9.1988
	534	2	23.0062	13.8024	13.8014
	535	2	22.996	13.8022	18.3906
	536	1	23.0021	13.7922	22.9999
	537	2	22.9984	13.7949	27.6093
	538	2	23.007	13.7989	32.1933
	539	2	23.0012	13.7958	36.8098
	540	1	23.0008	13.8059	41.4019
	541	1	23.007	18.4082	0.0052
	542	1	22.9936	18.3921	4.6068
	543	2	22.9959	18.3984	9.1955
	544	2	23.0066	18.3973	13.8068
	545	2	23.004	18.3994	18.3966
	546	2	22.9989	18.4079	22.9915
	547	2	23.0029	18.4071	27.5968
	548	2	23.0081	18.3952	32.2015
	549	2	22.9941	18.3951	36.8069
	550	1	22.9903	18.4094	41.4064
	551	2	23.0009	22.9973	0.0026
	552	1	22.9924	23.0038	4.5949
	553	2	23.0051	22.9916	9.2086
	554	2	23.006	23.0083	13.8048
	555	2	22.9949	23.0004	18.3943
	556	2	22.9933	22.9937	22.991
	557	2	23.0001	23.0079	27.5972
	558	2	22.9992	22.9949	32.2049
	559	2	23.0079	22.9923	36.8073
	560	1	22.993	23.0086	41.4082
	561	2	22.9915	27.5962	-0.0051
	562	1	23.0096	27.592	4.6059
	563	1	23.0068	27.6057	9.2016
	564	2	23.0099	27.6099	13.7947
	565	2	22.9964	27.5966	18.3954
	566	2	22.9919	27.5969	23.0005
	567	2	23.004	27.6051	27.6071
	568	2	23.0078	27.592	32.1963
	569	1	23.0076	27.5955	36.8095
	570	2	22.9985	27.607	41.4041
	571	2	22.9997	32.2095	-0.0047
	572	1	23.0064	32.2069	4.6047
	573	2	23.0059	32.2034	9.2092
	574	1	22.996	32.1993	13.7911
	575	2	23.0019	32.2079	18.3966
	576	2	23.005	32.2065	22.9907
	577	2	22.9961	32.192	27.5982
	578	1	23.004	32.1945	32.2046
	579	2	22.9936	32.2069	36.7933
	580	2	23.0021	32.1973	41.4001
	581	2	23.0059	36.7993	-0.0005
	582	2	22.9998	36.8037	4.5983
	583	1	22.9966	36.7919	9.1942
	584	2	23.003	36.7962	13.7906
	585	1	23.0094	36.7914	18.408
	586	1	23.0015	36.8038	22.9944
	587	1	23.0093	36.7966	27.5991
	588	1	23.0069	36.8055	32.2037
	589	2	23.0067	36.8086	36.8064
	590	2	22.9937	36.7936	41.4087
	591	2	23.0094	41.401	0.0095
	592	2	23.0054	41.3915	4.601
	593	2	22.993	41.4085	9.2059
	594	2	22.9946	41.4008	13.7922
	595	2	22.9984	41.3911	18.3971
	596	1	22.9997	41.4029	22.9978
	597	2	22.9911	41.4003	27.5948
	598	2	23.0074	41.3948	32.2079
	599	2	22.9952	41.3927	36.7996
	600	2	23.0062	41.3962	41.4023
	601	2	27.6062	-0.001	-0.0059
	602	2	27.5949	-0.0049	4.5951
	603	2	27.6016	-0.0049	9.2058
	604	2	27.595	-0.0023	13.7912
	605	2	27.5909	0.006	18.3912
	606	1	27.6064	0.0016	23.0017
	607	1	27.6071	0.0003	27.6081
	608	1	27.6083	-0.0055	32.2043
	609	1	27.6016	0.004	36.8072
	610	2	27.6031	0.0084	41.4005
	611	1	27.607	4.5996	0.0042
	612	1	27.5983	4.5954	4.6087
	613	2	27.6027	4.5982	9.2042
	614	1	27.6056	4.5922	13.7993
	615	1	27.5918	4.6031	18.4025
	616	2	27.5952	4.5924	22.9933
	617	2	27.5942	4.6012	27.6088
	618	2	27.6001	4.6018	32.197
	619	1	27.5993	4.6021	36.7975
	620	2	27.6084	4.6089	41.3991
	621	2	27.597	9.1939	0.0017
	622	2	27.6006	9.2012	4.5919
	623	2	27.6006	9.1962	9.2007
	624	2	27.5951	9.1988	13.7956
	625	1	27.607	9.1969	18.3918
	626	1	27.5949	9.2003	22.9903
	627	1	27.597	9.1933	27.5985
	628	2	27.603	9.192	32.1935
	629	2	27.602	9.2064	36.7986
	630	2	27.5996	9.1938	41.3994
	631	1	27.6084	13.8051	-0.0074
	632	2	27.5911	13.8038	4.5905
	633	2	27.6059	13.8086	9.2049
	634	2	27.6045	13.798	13.8049
	635	1	27.5996	13.7907	18.393
	636	2	27.591	13.7982	23.01
	637	2	27.5941	13.7946	27.5995
	638	1	27.597	13.8088	32.1943
	639	1	27.5982	13.7986	36.7994
	640	2	27.6084	13.8044	41.4065
	641	1	27.5901	18.4003	0.0005
	642	2	27.5947	18.3904	4.6011
	643	2	27.602	18.403	9.2086
	644	2	27.5901	18.3921	13.7939
	645	2	27.6001	18.4097	18.4056
	646	2	27.6051	18.4059	23.0081
	647	2	27.6003	18.4006	27.6074
	648	2	27.5968	18.4079	32.2014
	649	1	27.6042	18.3978	36.8088
	650	1	27.6099	18.4052	41.4077
	651	2	27.5979	22.9978	0.0063
	652	2	27.5964	23.0079	4.599
	653	2	27.6011	22.991	9.1959
	654	2	27.5977	23.0006	13.7918
	655	1	27.5903	23.0025	18.3914
	656	2	27.5934	22.9951	23.0076
	657	1	27.6025	23.0023	27.5948
	658	2	27.6078	22.9959	32.2077
	659	1	27.5962	23.0018	36.807
	660	1	27.6009	23.0027	41.3969
	661	2	27.5965	27.6059	0.0088
	662	2	27.6073	27.5947	4.5927
	663	2	27.5998	27.609	9.2062
	664	1	27.5905	27.6089	13.7973
	665	1	27.5949	27.6064	18.4084
	666	2	27.6076	27.5914	23.0098
	667	2	27.5969	27.5939	27.6068
	668	2	27.6028	27.5991	32.1958
	669	2	27.5902	27.5947	36.7922
	670	2	27.6064	27.5905	41.3927
	671	1	27.5926	32.2014	0.0048
	672	1	27.5953	32.2095	4.603
	673	1	27.5913	32.2078	9.1978
	674	2	27.5921	32.1965	13.8005
	675	2	27.61	32.2076	18.4006
	676	2	27.6063	32.1921	23.0079
	677	2	27.5924	32.2051	27.5949
	678	1	27.6027	32.1937	32.1921
	679	1	27.5986	32.2097	36.7954
	680	1	27.6025	32.2092	41.4009
	681	2	27.6052	36.7939	-0.0081
	682	2	27.598	36.7932	4.6075
	683	2	27.5964	36.7986	9.2003
	684	2	27.5932	36.7991	13.7904
	685	1	27.6075	36.7946	18.3959
	686	2	27.6069	36.8015	23.0093
	687	1	27.5945	36.8038	27.5954
	688	2	27.6042	36.7955	32.1976
	689	2	27.5935	36.7984	36.7913
	690	1	27.6002	36.7925	41.3918
	691	1	27.593	41.4043	-0.0089
	692	1	27.6063	41.3965	4.608
	693	2	27.5965	41.4048	9.1912
	694	1	27.5944	41.3922	13.8059
	695	2	27.6096	41.4069	18.409
	696	1	27.6037	41.4083	22.9984
	697	2	27.608	41.3962	27.5922
	698	2	27.5968	41.3935	32.2001
	699	1	27.5989	41.4063	36.7989
	700	1	27.5934	41.4044	41.398
	701	1	32.2015	-0.0036	-0.0098
	702	2	32.2034	-0.0097	4.5938
	703	2	32.205	-0.0072	9.2042
	704	2	32.2061	-0.0019	13.7932
	705	1	32.1988	0.0035	18.401
	706	2	32.2025	0.0038	23.0092
	707	1	32.205	-0.009	27.6051
	708	1	32.2059	-0.0095	32.2075
	709	2	32.206	0.0022	36.7984
	710	2	32.2054	0.0083	41.396
	711	1	32.2077	4.6075	-0.0045
	712	2	32.2084	4.6055	4.6012
	713	2	32.1901	4.6021	9.191
	714	1	32.1999	4.6025	13.7942
	715	2	32.1969	4.607	18.3966
	716	2	32.1945	4.6003	23.007
	717	2	32.2	4.6073	27.5955
	718	1	32.1973	4.6034	32.1977
	719	2	32.2086	4.607	36.7981
	720	1	32.1938	4.6021	41.4063
	721	1	32.2096	9.1917	0.0007
	722	2	32.2029	9.1973	4.6026
	723	2	32.2099	9.1904	9.2095
	724	1	32.1907	9.2086	13.7925
	725	2	32.1988	9.1943	18.4063
	726	2	32.1932	9.1963	22.9955
	727	1	32.191	9.2017	27.6069
	728	2	32.2014	9.2042	32.1971
	729	1	32.2097	9.2023	36.7954
	730	2	32.1985	9.2019	41.4056
	731	2	32.1919	13.794	0.0043
	732	2	32.1966	13.8081	4.6065
	733	2	32.207	13.8034	9.1925
	734	2	32.1993	13.7923	13.81
	735	2	32.1967	13.7988	18.3972
	736	2	32.193	13.7928	23.0039
	737	1	32.2062	13.7997	27.5911
	738	1	32.1902	13.8036	32.1903
	739	2	32.2077	13.8078	36.8024
	740	2	32.1934	13.8087	41.3981
	741	2	32.2042	18.4054	-0.0079
	742	2	32.2063	18.3941	4.5932
	743	2	32.2099	18.3908	9.1915
	744	2	32.2095	18.4075	13.8094
	745	2	32.2046	18.4052	18.3917
	746	2	32.2048	18.4083	22.9954
	747	2	32.206	18.4058	27.5935
	748	1	32.1926	18.3922	32.2098
	749	2	32.203	18.4033	36.8093
	750	2	32.2013	18.3975	41.3902
	751	2	32.2002	23.0098	-0.0084
	752	2	32.2031	22.994	4.6016
	753	1	32.1918	22.9918	9.2006
	754	1	32.1964	23.0043	13.8012
	755	2	32.1999	22.9987	18.3902
	756	2	32.1919	23.008	23.0019
	757	2	32.1994	23.0005	27.6022
	758	1	32.2033	22.9982	32.1978
	759	2	32.1919	23.0004	36.8081
	760	2	32.2097	23.003	41.4067
	761	2	32.1913	27.6	-0.0028
	762	2	32.2007	27.5955	4.6032
	763	2	32.1972	27.6047	9.1985
	764	2	32.1996	27.6076	13.8066
	765	2	32.2064	27.5981	18.41
	766	2	32.2027	27.6051	22.9933
	767	2	32.194	27.5945	27.6045
	768	2	32.2089	27.6073	32.1937
	769	2	32.1976	27.597	36.7933
	770	1	32.2016	27.6052	41.4022
	771	2	32.195	32.1917	0.0049
	772	2	32.2032	32.198	4.6045
	773	2	32.2072	32.209	9.2043
	774	2	32.1996	32.1949	13.8
	775	1	32.1914	32.2094	18.3991
	776	1	32.1988	32.2003	23.0051
	777	1	32.198	32.2031	27.6002
	778	2	32.2063	32.2019	32.1907
	779	2	32.1983	32.2083	36.7903
	780	2	32.2093	32.1944	41.3965
	781	2	32.2044	36.801	0.0069
	782	2	32.1917	36.7992	4.5938
	783	2	32.2006	36.7986	9.2014
	784	2	32.196	36.79	13.7961
	785	2	32.2025	36.8033	18.3919
	786	2	32.2095	36.8086	23.0079
	787	2	32.1908	36.7961	27.6047
	788	2	32.2021	36.8092	32.2099
	789	2	32.1998	36.8077	36.7911
	790	2	32.2009	36.8081	41.3986
	791	2	32.1905	41.4034	0.0039
	792	2	32.1935	41.3959	4.5916
	793	1	32.205	41.4078	9.1922
	794	2	32.2026	41.3915	13.7926
	795	2	32.1937	41.3946	18.4021
	796	1	32.1994	41.4043	22.9934
	797	2	32.194	41.3976	27.6074
	798	1	32.1938	41.3964	32.1986
	799	2	32.2012	41.4095	36.7945
	800	2	32.2036	41.4089	41.4005
	801	1	36.8055	-0.0029	-0.0018
	802	2	36.7921	-0.0002	4.5958
	803	2	36.7938	-0.0084	9.2036
	804	2	36.7905	0.0006	13.8009
	805	2	36.8027	-0.0035	18.3971
	806	1	36.7982	0.0042	23.0035
	807	2	36.8089	0.0073	27.598
	808	1	36.7982	0.0057	32.2036
	809	2	36.7958	-0.0003	36.8046
	810	2	36.7993	0.0066	41.3938
	811	1	36.8041	4.5914	0.0015
	812	2	36.7931	4.5973	4.606
	813	1	36.7946	4.5958	9.2085
	814	2	36.8093	4.5991	13.802
	815	1	36.791	4.596	18.4056
	816	2	36.8	4.6073	22.9974
	817	2	36.806	4.5936	27.596
	818	2	36.7937	4.5986	32.2021
	819	2	36.805	4.596	36.7945
	820	2	36.7928	4.5953	41.4076
	821	1	36.7902	9.2011	0.0028
	822	2	36.8021	9.197	4.5991
	823	1	36.7938	9.1935	9.2041
	824	2	36.7947	9.2082	13.7976
	825	2	36.8089	9.1976	18.3987
	826	2	36.7988	9.2061	22.9917
	827	2	36.804	9.2036	27.6054
	828	2	36.7948	9.1955	32.2009
	829	2	36.8013	9.194	36.8063
	830	2	36.7959	9.2075	41.408
	831	1	36.799	13.7908	-0.0017
	832	2	36.8084	13.8093	4.5955
	833	2	36.7966	13.8062	9.1932
	834	2	36.8049	13.8008	13.8046
	835	2	36.7949	13.8003	18.4093
	836	1	36.7964	13.8083	22.995
	837	1	36.7935	13.7906	27.5971
	838	1	36.8098	13.8091	32.2046
	839	1	36.7911	13.7988	36.797
	840	2	36.7907	13.8097	41.3965
	841	2	36.8002	18.3967	-0.0038
	842	2	36.8091	18.3987	4.6006
	843	2	36.801	18.4087	9.1985
	844	2	36.8079	18.4039	13.8023
	845	1	36.7986	18.392	18.403
	846	2	36.7963	18.4	22.9948
	847	2	36.8052	18.4052	27.5954
	848	2	36.8082	18.3924	32.2098
	849	2	36.8074	18.3921	36.791
	850	2	36.8025	18.3939	41.4062
	851	1	36.8098	23.0045	0.0079
	852	1	36.7957	23.0029	4.5957
	853	2	36.7999	23.0057	9.1916
	854	2	36.8016	22.9914	13.7929
	855	1	36.8096	23.0052	18.3969
	856	2	36.796	22.9903	22.998
	857	2	36.8028	22.9991	27.6099
	858	2	36.8068	22.9956	32.1965
	859	2	36.7983	22.9928	36.7902
	860	1	36.805	23.0097	41.3974
	861	2	36.7906	27.5993	-0.0012
	862	2	36.8093	27.6046	4.5928
	863	2	36.7929	27.5987	9.1904
	864	1	36.7989	27.6037	13.7955
	865	2	36.8098	27.6023	18.409
	866	1	36.8072	27.6	23.0048
	867	2	36.8071	27.6062	27.6065
	868	2	36.7998	27.6028	32.2048
	869	2	36.7967	27.5933	36.8035
	870	2	36.8035	27.6095	41.3947
	871	1	36.8078	32.207	-0.0012
	872	2	36.8	32.1956	4.6038
	873	2	36.8073	32.1991	9.1965
	874	2	36.8043	32.2073	13.8062
	875	2	36.8007	32.1907	18.3971
	876	2	36.7995	32.1963	23.0091
	877	1	36.8078	32.2056	27.5961
	878	2	36.8056	32.2037	32.1941
	879	2	36.8036	32.2018	36.8068
	880	1	36.7924	32.2032	41.3944
	881	2	36.8024	36.8088	0.0093
	882	1	36.804	36.7994	4.6004
	883	2	36.7933	36.8038	9.1901
	884	2	36.7904	36.7995	13.8063
	885	2	36.8074	36.8033	18.4014
	886	2	36.8083	36.7908	23.0058
	887	2	36.792	36.7963	27.5946
	888	2	36.7986	36.8023	32.1934
	889	2	36.8008	36.7996	36.7913
	890	2	36.8009	36.8022	41.3966
	891	1	36.7943	41.3969	-0.0078
	892	2	36.7956	41.3993	4.5947
	893	1	36.7942	41.3913	9.1992
	894	2	36.7972	41.3934	13.8097
	895	2	36.7926	41.4057	18.3933
	896	2	36.8073	41.3959	22.9988
	897	1	36.7964	41.3961	27.5967
	898	2	36.8086	41.3928	32.2
	899	1	36.7932	41.4009	36.8055
	900	1	36.7902	41.3937	41.3933
	901	1	41.4058	-0.0067	-0.0013
	902	2	41.4011	-0.0019	4.5972
	903	2	41.3927	-0.0009	9.2076
	904	2	41.3924	0.0094	13.7973
	905	2	41.3904	0.0078	18.4067
	906	2	41.4095	0.0099	22.9978
	907	2	41.4017	0.0053	27.5937
	908	1	41.3955	0.005	32.2052
	909	2	41.408	0.0069	36.794
	910	2	41.3924	0.0079	41.402
	911	2	41.3931	4.6089	0.0035
	912	2	41.4029	4.5914	4.5985
	913	1	41.3998	4.5906	9.1992
	914	1	41.3916	4.6042	13.8055
	915	2	41.398	4.6085	18.3911
	916	2	41.4048	4.6039	22.9988
	917	2	41.4012	4.5933	27.6005
	918	2	41.3962	4.6015	32.2077
	919	2	41.3938	4.6007	36.8023
	920	2	41.4003	4.6071	41.4001
	921	2	41.3916	9.1932	-0.0064
	922	2	41.3947	9.1966	4.5937
	923	2	41.4033	9.2029	9.204
	924	2	41.4094	9.2066	13.7952
	925	2	41.3921	9.1969	18.3931
	926	2	41.4081	9.2082	22.99
	927	1	41.4064	9.1976	27.5901
	928	2	41.402	9.1946	32.1939
	929	2	41.4045	9.2047	36.7972
	930	1	41.4018	9.1901	41.4015
	931	2	41.3956	13.7988	0.0054
	932	2	41.4034	13.7955	4.6084
	933	2	41.4092	13.7936	9.2034
	934	2	41.4075	13.7923	13.7998
	935	2	41.4015	13.7911	18.3978
	936	2	41.4024	13.807	23.0045
	937	2	41.3964	13.8026	27.6006
	938	1	41.4058	13.8083	32.2036
	939	1	41.4079	13.7918	36.7902
	940	2	41.4058	13.8029	41.3988
	941	2	41.3992	18.4045	-0.0006
	942	2	41.4073	18.4094	4.6061
	943	1	41.4044	18.405	9.2062
	944	2	41.3976	18.3904	13.7908
	945	2	41.3966	18.4048	18.393
	946	1	41.3968	18.4091	22.9942
	947	2	41.3976	18.4065	27.6094
	948	2	41.3946	18.3969	32.2062
	949	1	41.3912	18.3996	36.8035
	950	1	41.3934	18.4019	41.3937
	951	1	41.3914	22.9901	0.0002
	952	2	41.3921	23.0025	4.5913
	953	1	41.3964	23.0019	9.191
	954	2	41.4043	23.0083	13.8035
	955	1	41.4011	22.9933	18.3919
	956	1	41.3926	22.9912	23.0031
	957	2	41.4068	22.9932	27.6048
	958	1	41.402	22.9927	32.2044
	959	2	41.404	22.9962	36.7995
	960	2	41.3967	22.9926	41.3981
	961	2	41.4074	27.5929	0.0096
	962	2	41.3934	27.5936	4.5956
	963	2	41.3965	27.6038	9.2023
	964	2	41.4029	27.5944	13.7999
	965	1	41.4098	27.5935	18.4098
	966	2	41.3919	27.6033	23.0005
	967	1	41.3997	27.6042	27.6047
	968	2	41.4065	27.5915	32.1986
	969	1	41.4062	27.6065	36.8037
	970	1	41.4041	27.6087	41.4087
	971	2	41.3928	32.2094	0.0098
	972	1	41.398	32.1932	4.6014
	973	2	41.3996	32.2085	9.2021
	974	1	41.3997	32.198	13.8019
	975	2	41.3908	32.202	18.3905
	976	1	41.3984	32.1985	22.9906
	977	2	41.4021	32.2088	27.5946
	978	2	41.3918	32.207	32.1931
	979	1	41.3997	32.1903	36.8027
	980	1	41.3953	32.1955	41.406
	981	2	41.3973	36.81	-0.0052
	982	2	41.4099	36.7902	4.593
	983	1	41.3981	36.7977	9.1994
	984	2	41.3942	36.801	13.7959
	985	2	41.3952	36.7977	18.3937
	986	2	41.4045	36.7971	22.9935
	987	2	41.4041	36.8033	27.5907
	988	1	41.4085	36.8046	32.2061
	989	1	41.4055	36.7987	36.7992
	990	2	41.3998	36.8075	41.3979
	991	1	41.4087	41.3968	-0.0016
	992	2	41.4096	41.401	4.6049
	993	2	41.4074	41.4099	9.197
	994	1	41.396	41.4056	13.7924
	995	2	41.4052	41.4027	18.3918
	996	2	41.3969	41.3949	22.9994
	997	2	41.3907	41.4068	27.609
	998	2	41.3921	41.4052	32.2073