Nickle Copper Simulation

6084 	atoms
0 	bonds
0 	angles
0 	dihedrals
0 	impropers

2	atom types
0	bond types
0	angle types
0	dihedral types
0	improper types

-0.02	50.62	xlo xhi
-0.02	50.62	ylo yhi
-0.02	50.62	zlo zhi

Atoms

	1	2	0.0082	-0.0066	-0.0095
	2	2	-0.0001	-0.0009	4.5989
	3	2	-0.0026	-0.0071	9.1994
	4	1	0.0097	-0.0097	13.8085
	5	1	0.0076	-0.0059	18.3967
	6	1	-0.0057	-0.0091	22.9954
	7	2	0.0026	0.0016	27.6059
	8	2	-0.0056	-0.0016	32.2073
	9	2	-0.0037	0.0098	36.8038
	10	1	-0.0052	-0.0092	41.3974
	11	1	-0.0025	-0.0032	45.9965
	12	2	0.0085	0.0033	50.6048
	13	2	-0.0006	4.6089	0.0094
	14	1	-0.0052	4.6054	4.6033
	15	2	-0.0094	4.6094	9.2064
	16	2	-0.0086	4.5934	13.8049
	17	2	0.0061	4.5907	18.3906
	18	2	0.0028	4.591	23.0091
	19	2	-0.0064	4.5986	27.5994
	20	2	-0.0051	4.6016	32.1928
	21	2	-0.0088	4.6033	36.8006
	22	2	0.0053	4.609	41.3986
	23	2	0.0018	4.5977	45.994
	24	2	-0.001	4.6083	50.5933
	25	2	0.0064	9.2095	0.0033
	26	1	-0.008	9.1913	4.6042
	27	2	-0.0094	9.2066	9.2036
	28	2	-0.0085	9.1926	13.8062
	29	2	-0.0043	9.191	18.4028
	30	2	-0.0025	9.1906	23.0078
	31	2	-0.0054	9.1978	27.5909
	32	2	0.0056	9.2029	32.2014
	33	1	0.0058	9.1996	36.7955
	34	2	-0.0051	9.2027	41.4043
	35	2	-0.0073	9.2044	46.0065
	36	1	-0.0034	9.2085	50.5969
	37	2	-0.0071	13.8022	-0.0083
	38	1	0.0096	13.7973	4.6007
	39	2	0.0061	13.7975	9.2089
	40	1	0.0066	13.7966	13.7931
	41	1	0.0021	13.8028	18.3939
	42	2	-0.0098	13.8082	22.9902
	43	2	-0.0003	13.8064	27.6065
	44	2	0.0013	13.8022	32.1948
	45	1	0.0046	13.7936	36.7906
	46	2	-0.0048	13.8057	41.3974
	47	2	-0.0006	13.8034	46.0094
	48	1	0.0088	13.8085	50.5912
	49	2	0.0035	18.4044	0.0003
	50	2	-0.0018	18.3948	4.6079
	51	2	0.0	18.4062	9.1953
	52	2	0.0069	18.404	13.7949
	53	2	0.0091	18.39	18.3989
	54	2	-0.0012	18.4096	23.0034
	55	2	0.0095	18.4005	27.5995
	56	1	-0.0047	18.4067	32.2
	57	2	0.0065	18.3904	36.7902
	58	1	0.0013	18.4049	41.404
	59	2	-0.0009	18.3955	45.9904
	60	2	-0.0035	18.3989	50.5936
	61	2	0.0086	23.0083	0.007
	62	2	0.0027	22.9986	4.5913
	63	2	-0.0066	22.9923	9.1958
	64	2	-0.0014	22.9902	13.809
	65	1	0.007	22.9925	18.39
	66	2	0.0046	22.9914	23.0073
	67	1	-0.0098	22.9914	27.5943
	68	2	-0.0099	22.9917	32.1963
	69	2	0.0012	22.9943	36.8052
	70	1	0.0037	23.0045	41.4012
	71	1	0.0071	23.0073	45.9973
	72	1	-0.0014	23.0008	50.5941
	73	2	-0.0027	27.6056	0.0076
	74	2	-0.0098	27.5929	4.6096
	75	2	0.004	27.6036	9.2036
	76	1	0.003	27.6044	13.7933
	77	1	0.0029	27.6046	18.3921
	78	1	0.0002	27.5935	22.9935
	79	2	-0.0002	27.5934	27.5926
	80	2	0.0078	27.6028	32.1947
	81	2	-0.0013	27.608	36.7948
	82	2	-0.0094	27.6021	41.4083
	83	1	0.0026	27.5972	45.9925
	84	1	-0.0086	27.5942	50.5951
	85	1	-0.0049	32.2062	0.0016
	86	2	0.0032	32.1902	4.5971
	87	1	-0.0096	32.2079	9.1989
	88	1	-0.0056	32.2085	13.8061
	89	2	0.0089	32.2001	18.3978
	90	1	-0.0058	32.2013	22.9945
	91	1	0.0031	32.2001	27.602
	92	2	-0.0003	32.2052	32.1945
	93	2	-0.0042	32.196	36.8078
	94	2	0.0048	32.2083	41.3984
	95	1	0.0047	32.2006	46.0086
	96	2	-0.0009	32.1949	50.5947
	97	2	-0.0073	36.8082	-0.0076
	98	2	-0.0025	36.807	4.5955
	99	1	0.0052	36.8007	9.1988
	100	2	-0.0031	36.8082	13.8082
	101	2	0.0011	36.7933	18.4041
	102	2	0.0088	36.7909	22.9948
	103	2	-0.0041	36.8093	27.5996
	104	2	-0.0068	36.7999	32.1978
	105	2	-0.0016	36.8026	36.8093
	106	2	-0.0099	36.8075	41.4022
	107	2	-0.0054	36.8043	45.9966
	108	2	0.0057	36.8084	50.5922
	109	1	-0.0043	41.3985	-0.0099
	110	2	0.0012	41.402	4.6024
	111	2	-0.0028	41.391	9.2001
	112	2	-0.0036	41.3941	13.8065
	113	2	-0.004	41.4003	18.4078
	114	2	0.0076	41.39	22.9906
	115	1	0.0007	41.3983	27.6045
	116	2	-0.0008	41.3979	32.2014
	117	2	-0.0096	41.3911	36.7942
	118	2	0.0002	41.3946	41.3936
	119	2	-0.0042	41.402	46.0017
	120	2	-0.0092	41.4016	50.5939
	121	1	0.005	46.0072	0.0004
	122	1	-0.0078	46.0041	4.5932
	123	2	0.0092	45.9907	9.1901
	124	2	-0.0049	45.9951	13.7977
	125	1	0.0034	45.993	18.403
	126	2	0.0051	46.0047	23.0046
	127	2	-0.0055	45.9931	27.5964
	128	2	-0.0049	45.9967	32.1918
	129	2	-0.003	45.9913	36.8026
	130	2	0.0064	45.9931	41.399
	131	2	-0.0057	46.0036	45.9909
	132	2	-0.0014	46.0093	50.5927
	133	2	-0.0047	50.6092	0.0024
	134	1	-0.0066	50.6033	4.5937
	135	2	-0.0079	50.5985	9.1999
	136	2	0.0084	50.6054	13.7936
	137	1	-0.0099	50.596	18.3915
	138	2	-0.0096	50.5911	22.9932
	139	1	0.0077	50.6091	27.6093
	140	1	0.0067	50.5942	32.2006
	141	1	0.0048	50.5977	36.7939
	142	2	-0.0033	50.6063	41.4074
	143	2	0.0011	50.598	46.0059
	144	2	-0.0025	50.6024	50.5984
	145	2	4.5926	-0.0082	0.0039
	146	2	4.5932	-0.0072	4.5961
	147	2	4.5921	-0.0073	9.2069
	148	1	4.5939	0.0029	13.8051
	149	2	4.5982	-0.0066	18.3963
	150	2	4.5938	0.0047	23.0018
	151	2	4.6014	-0.0027	27.601
	152	2	4.591	-0.0034	32.2052
	153	2	4.6014	0.0086	36.802
	154	2	4.5936	0.0013	41.4034
	155	2	4.5973	-0.0045	45.998
	156	2	4.6095	-0.0094	50.6049
	157	1	4.5906	4.6005	0.0064
	158	2	4.5921	4.5916	4.6045
	159	2	4.5937	4.6065	9.1975
	160	2	4.5977	4.5999	13.7961
	161	1	4.5935	4.601	18.4079
	162	2	4.5965	4.5923	22.9911
	163	1	4.5914	4.5913	27.5938
	164	2	4.5973	4.5937	32.2071
	165	2	4.598	4.5912	36.8099
	166	2	4.6024	4.6054	41.3973
	167	1	4.6015	4.5929	45.9939
	168	2	4.594	4.6061	50.596
	169	2	4.6063	9.2	-0.0095
	170	1	4.6093	9.1955	4.5928
	171	1	4.6022	9.2004	9.1946
	172	2	4.5901	9.1952	13.7973
	173	1	4.6001	9.1913	18.3963
	174	2	4.6001	9.193	23.0066
	175	1	4.5946	9.2052	27.604
	176	1	4.6044	9.1984	32.1902
	177	2	4.5949	9.1966	36.8086
	178	2	4.6061	9.2076	41.4082
	179	2	4.608	9.1916	46.0041
	180	2	4.6025	9.2033	50.5964
	181	2	4.6063	13.8059	-0.0033
	182	2	4.6062	13.7949	4.6029
	183	2	4.6021	13.8	9.1945
	184	2	4.6081	13.7991	13.8076
	185	2	4.6027	13.8039	18.3908
	186	2	4.5998	13.7988	22.9997
	187	2	4.6064	13.7909	27.6043
	188	2	4.6052	13.8022	32.2054
	189	2	4.6064	13.8045	36.8002
	190	2	4.6085	13.8023	41.4089
	191	2	4.6074	13.806	46.0025
	192	1	4.5927	13.8012	50.5943
	193	2	4.5951	18.3947	-0.0054
	194	2	4.5935	18.4029	4.5979
	195	2	4.6039	18.4022	9.205
	196	2	4.5967	18.3973	13.7973
	197	1	4.6026	18.3987	18.3904
	198	2	4.592	18.3972	23.0077
	199	1	4.599	18.3932	27.6008
	200	2	4.5914	18.4098	32.2083
	201	2	4.5954	18.4086	36.8003
	202	2	4.6002	18.3915	41.3971
	203	2	4.5944	18.4028	46.0034
	204	2	4.597	18.4083	50.6052
	205	2	4.6091	22.993	0.0095
	206	2	4.6099	22.9999	4.5974
	207	2	4.5903	23.0082	9.1959
	208	1	4.597	22.9943	13.8028
	209	1	4.603	23.0033	18.3978
	210	1	4.5914	22.9935	23.0053
	211	2	4.6002	22.991	27.5954
	212	1	4.5929	22.9929	32.1911
	213	2	4.59	22.9922	36.7959
	214	2	4.6017	23.0074	41.3953
	215	2	4.5902	23.0069	46.0029
	216	2	4.6046	22.9922	50.6097
	217	1	4.5994	27.5948	-0.0045
	218	2	4.5952	27.6032	4.5911
	219	1	4.6003	27.607	9.2065
	220	2	4.5995	27.6077	13.8078
	221	2	4.5989	27.5944	18.4043
	222	2	4.5948	27.6021	23.0075
	223	2	4.606	27.6051	27.5946
	224	1	4.6096	27.5931	32.1914
	225	2	4.6024	27.6027	36.8096
	226	2	4.6032	27.5937	41.3903
	227	2	4.6065	27.6005	45.9967
	228	2	4.6034	27.6008	50.6058
	229	2	4.5911	32.2095	-0.0025
	230	2	4.6045	32.1928	4.6049
	231	2	4.6091	32.1943	9.1948
	232	1	4.6046	32.2049	13.7919
	233	2	4.595	32.2035	18.3996
	234	2	4.5926	32.1966	23.0015
	235	2	4.6032	32.191	27.6099
	236	2	4.6022	32.203	32.1947
	237	2	4.6086	32.1997	36.8066
	238	1	4.609	32.1972	41.4049
	239	2	4.6028	32.1901	45.9976
	240	2	4.5944	32.1951	50.6096
	241	1	4.5918	36.8041	-0.0071
	242	1	4.5993	36.8082	4.6003
	243	2	4.5936	36.805	9.1958
	244	2	4.5991	36.7975	13.7993
	245	2	4.6044	36.8019	18.3983
	246	1	4.6076	36.8003	23.0042
	247	1	4.6002	36.7968	27.6053
	248	2	4.6063	36.8045	32.1908
	249	2	4.5965	36.7977	36.7906
	250	2	4.6013	36.7999	41.3904
	251	1	4.597	36.8071	46.0051
	252	1	4.6091	36.8091	50.5993
	253	1	4.607	41.4009	-0.0085
	254	1	4.6078	41.4011	4.5973
	255	2	4.5988	41.397	9.2091
	256	2	4.6067	41.3997	13.8007
	257	1	4.6072	41.4	18.4023
	258	2	4.6068	41.3929	23.0038
	259	2	4.6068	41.3973	27.5944
	260	2	4.6039	41.4051	32.2079
	261	2	4.6048	41.4085	36.8015
	262	1	4.6079	41.4099	41.4034
	263	2	4.6073	41.4009	46.0032
	264	2	4.6051	41.3926	50.5984
	265	2	4.6022	45.9967	-0.0076
	266	1	4.5991	45.9926	4.5982
	267	2	4.6026	46.0072	9.2018
	268	1	4.5966	45.9989	13.8059
	269	2	4.6076	45.9919	18.4071
	270	2	4.6092	45.9961	23.0088
	271	2	4.5937	45.9921	27.6053
	272	2	4.5965	46.0052	32.2013
	273	2	4.5981	45.9997	36.7948
	274	2	4.6029	45.9924	41.4041
	275	2	4.5963	45.9967	45.9979
	276	2	4.5968	45.9906	50.5987
	277	2	4.6022	50.592	-0.0071
	278	2	4.6021	50.5989	4.6036
	279	2	4.5955	50.597	9.2023
	280	2	4.6064	50.59	13.7948
	281	2	4.595	50.5975	18.4049
	282	2	4.5964	50.6075	22.9903
	283	2	4.6028	50.5928	27.5959
	284	2	4.5928	50.5979	32.2044
	285	1	4.597	50.608	36.8006
	286	2	4.6059	50.5956	41.409
	287	1	4.6043	50.6	46.0051
	288	1	4.6005	50.5923	50.5956
	289	1	9.1919	-0.0046	-0.0076
	290	1	9.2008	0.005	4.5963
	291	1	9.1981	-0.0072	9.1932
	292	2	9.2079	-0.0068	13.7902
	293	2	9.1995	0.0048	18.4071
	294	2	9.193	0.0051	22.9928
	295	2	9.1918	0.0029	27.6082
	296	1	9.1953	-0.0002	32.1934
	297	1	9.1959	0.0012	36.8005
	298	2	9.1919	0.0019	41.3957
	299	1	9.2094	0.0035	46.0056
	300	2	9.1907	0.0087	50.6048
	301	1	9.2022	4.6011	-0.0067
	302	2	9.2053	4.6088	4.5942
	303	2	9.1977	4.5945	9.2012
	304	2	9.1961	4.6001	13.8032
	305	2	9.2055	4.5961	18.4037
	306	2	9.191	4.601	23.0074
	307	1	9.2095	4.6045	27.6069
	308	2	9.2059	4.5976	32.1916
	309	2	9.1996	4.5957	36.7921
	310	1	9.2055	4.6086	41.3931
	311	2	9.2085	4.608	46.0072
	312	2	9.2	4.5909	50.6062
	313	2	9.2036	9.207	-0.01
	314	2	9.2053	9.1995	4.6002
	315	2	9.1949	9.2034	9.2009
	316	2	9.192	9.1911	13.8032
	317	2	9.2016	9.2001	18.403
	318	2	9.191	9.2006	23.0053
	319	2	9.2085	9.192	27.6099
	320	2	9.1947	9.2047	32.2028
	321	1	9.2013	9.192	36.8098
	322	2	9.1985	9.198	41.4006
	323	2	9.2033	9.1992	46.0034
	324	2	9.2002	9.2011	50.6075
	325	2	9.1957	13.796	0.0011
	326	2	9.2022	13.795	4.6072
	327	2	9.1961	13.7907	9.1954
	328	2	9.2023	13.7995	13.8046
	329	2	9.208	13.7961	18.3923
	330	1	9.2014	13.7976	23.0073
	331	2	9.1923	13.8007	27.6057
	332	2	9.2019	13.804	32.197
	333	1	9.2043	13.8048	36.7978
	334	2	9.2057	13.8043	41.3908
	335	2	9.2024	13.7984	46.0042
	336	1	9.2091	13.8009	50.6062
	337	2	9.1909	18.3938	0.0061
	338	1	9.1949	18.3913	4.5909
	339	2	9.1995	18.3989	9.2082
	340	2	9.1916	18.4049	13.7994
	341	2	9.2093	18.4056	18.3977
	342	2	9.1905	18.4098	23.0086
	343	2	9.2049	18.3904	27.5944
	344	2	9.1982	18.4041	32.2056
	345	2	9.1929	18.4057	36.7992
	346	2	9.2089	18.3972	41.4071
	347	2	9.2097	18.4003	46.0074
	348	2	9.2	18.3926	50.6036
	349	2	9.2091	22.9982	0.0001
	350	1	9.199	23.0073	4.6057
	351	1	9.1995	22.9905	9.1957
	352	1	9.2012	23.0026	13.8041
	353	1	9.209	23.0095	18.4036
	354	2	9.2078	23.0065	23.0073
	355	2	9.1904	22.9921	27.6044
	356	2	9.1981	23.0017	32.1932
	357	2	9.2019	22.9972	36.797
	358	1	9.2098	23.0025	41.406
	359	1	9.199	23.0033	46.0024
	360	1	9.2069	23.0048	50.5911
	361	2	9.1948	27.5901	0.0078
	362	1	9.192	27.5966	4.6078
	363	2	9.2079	27.591	9.1985
	364	2	9.201	27.5988	13.7942
	365	2	9.1962	27.5973	18.392
	366	2	9.2012	27.6005	23.0017
	367	1	9.201	27.6047	27.6079
	368	2	9.1951	27.6097	32.1929
	369	2	9.1925	27.5905	36.8029
	370	1	9.1913	27.5922	41.4083
	371	2	9.197	27.6071	46.0006
	372	2	9.209	27.5993	50.6084
	373	1	9.2089	32.2027	0.0033
	374	2	9.2094	32.2086	4.5959
	375	2	9.2084	32.1918	9.1945
	376	2	9.1989	32.2042	13.7971
	377	2	9.1901	32.2011	18.4003
	378	2	9.1916	32.1937	22.9999
	379	2	9.1946	32.194	27.6046
	380	2	9.2087	32.1964	32.2035
	381	2	9.2077	32.2053	36.7981
	382	2	9.2053	32.1991	41.4066
	383	2	9.1986	32.2014	46.0093
	384	2	9.1918	32.202	50.6026
	385	2	9.1917	36.7976	0.005
	386	2	9.2068	36.808	4.5932
	387	2	9.2057	36.8087	9.1977
	388	1	9.1946	36.8025	13.8036
	389	2	9.2054	36.8004	18.3995
	390	1	9.1982	36.796	22.9982
	391	1	9.1943	36.8042	27.6044
	392	2	9.1919	36.8022	32.2036
	393	1	9.2018	36.7953	36.7968
	394	1	9.2044	36.8025	41.3926
	395	2	9.2018	36.8006	46.0044
	396	2	9.2018	36.7924	50.5958
	397	2	9.207	41.3963	0.0013
	398	2	9.1985	41.4053	4.603
	399	1	9.2097	41.4025	9.1992
	400	2	9.2069	41.4082	13.8011
	401	2	9.1997	41.3965	18.3945
	402	1	9.2088	41.4072	22.9966
	403	2	9.1911	41.4031	27.6003
	404	2	9.1963	41.4097	32.1983
	405	2	9.1951	41.3936	36.7942
	406	2	9.2007	41.3931	41.3955
	407	1	9.2011	41.3952	45.9976
	408	2	9.2021	41.393	50.5978
	409	1	9.1901	45.9958	0.0021
	410	1	9.1938	45.9952	4.5991
	411	2	9.2097	45.9999	9.2035
	412	2	9.2088	46.0074	13.7992
	413	1	9.2007	45.9931	18.3922
	414	2	9.2069	45.9929	23.0023
	415	1	9.2084	46.0003	27.5918
	416	2	9.193	45.9966	32.2019
	417	2	9.2092	46.0087	36.7952
	418	2	9.2022	46.0073	41.394
	419	1	9.193	46.0018	45.9932
	420	1	9.2086	45.9946	50.6065
	421	1	9.1971	50.5922	-0.0059
	422	1	9.1957	50.6046	4.6029
	423	1	9.205	50.5915	9.2023
	424	2	9.1905	50.6006	13.7947
	425	2	9.2089	50.5942	18.3914
	426	2	9.1964	50.6041	23.0011
	427	1	9.1972	50.6074	27.6089
	428	2	9.193	50.6059	32.2072
	429	1	9.1979	50.6025	36.7941
	430	1	9.2097	50.5911	41.3965
	431	2	9.2027	50.6033	45.9916
	432	1	9.2048	50.5965	50.5937
	433	2	13.7958	-0.0081	0.0048
	434	1	13.7998	0.0054	4.6046
	435	1	13.8045	0.0062	9.205
	436	2	13.8071	0.0059	13.7957
	437	2	13.8035	-0.0061	18.3909
	438	2	13.7909	0.0069	23.0068
	439	2	13.7985	-0.003	27.596
	440	2	13.8096	-0.0018	32.2022
	441	2	13.7963	-0.0098	36.7944
	442	2	13.8075	0.0049	41.3994
	443	2	13.7933	-0.0035	46.0
	444	1	13.8004	0.0088	50.598
	445	2	13.7995	4.5925	0.0071
	446	1	13.8053	4.5947	4.5995
	447	2	13.7948	4.6048	9.2039
	448	2	13.7902	4.5914	13.7975
	449	2	13.8055	4.6079	18.4045
	450	2	13.803	4.5919	22.9991
	451	1	13.8086	4.6084	27.5916
	452	1	13.8076	4.6005	32.2034
	453	2	13.7993	4.5954	36.7923
	454	2	13.7952	4.5934	41.4014
	455	2	13.8006	4.605	46.001
	456	2	13.8003	4.607	50.6058
	457	2	13.7997	9.1901	-0.0025
	458	2	13.8027	9.201	4.5923
	459	2	13.795	9.1915	9.1948
	460	1	13.7903	9.2098	13.8091
	461	2	13.7919	9.1914	18.3933
	462	2	13.8028	9.2006	23.0042
	463	1	13.8034	9.2015	27.5962
	464	2	13.7905	9.1907	32.198
	465	2	13.7944	9.2097	36.8043
	466	2	13.796	9.1934	41.409
	467	2	13.7973	9.1948	45.9966
	468	1	13.8055	9.2038	50.5984
	469	2	13.7923	13.8026	0.0079
	470	1	13.8012	13.8056	4.5998
	471	2	13.8054	13.8068	9.2046
	472	1	13.8081	13.8072	13.8046
	473	2	13.7901	13.806	18.4037
	474	1	13.8018	13.8097	23.0037
	475	1	13.8067	13.7921	27.5926
	476	1	13.8048	13.8088	32.2033
	477	2	13.8026	13.7948	36.7931
	478	2	13.7927	13.8095	41.3936
	479	2	13.8097	13.8091	46.0065
	480	2	13.799	13.7948	50.6079
	481	2	13.7941	18.3911	-0.0073
	482	2	13.7923	18.3961	4.6049
	483	2	13.795	18.4069	9.2084
	484	1	13.7954	18.3991	13.7906
	485	2	13.8082	18.4021	18.4085
	486	2	13.8007	18.4058	23.0091
	487	2	13.8084	18.4011	27.6029
	488	1	13.7906	18.3918	32.194
	489	2	13.8031	18.3988	36.7992
	490	1	13.7961	18.3921	41.4061
	491	2	13.8013	18.3979	45.9943
	492	1	13.7943	18.3902	50.6059
	493	2	13.8089	22.9907	-0.005
	494	1	13.8014	22.9939	4.5957
	495	2	13.8	23.0012	9.1986
	496	1	13.8016	23.0058	13.8078
	497	2	13.8009	22.9965	18.4006
	498	2	13.7965	22.991	22.9913
	499	2	13.8092	23.0047	27.6014
	500	2	13.8079	23.0085	32.2052
	501	2	13.8079	22.9981	36.8021
	502	2	13.7909	23.0083	41.4025
	503	1	13.8016	23.0036	46.0081
	504	1	13.8029	22.9928	50.6016
	505	1	13.8028	27.6055	-0.0074
	506	2	13.8039	27.6023	4.605
	507	2	13.7979	27.5933	9.2084
	508	2	13.81	27.6055	13.8059
	509	2	13.8028	27.6074	18.4096
	510	2	13.8046	27.602	22.9944
	511	2	13.7914	27.6062	27.6077
	512	2	13.7916	27.6033	32.1913
	513	2	13.792	27.5939	36.7963
	514	1	13.7967	27.5976	41.4087
	515	2	13.7912	27.5913	46.0049
	516	2	13.7924	27.5949	50.594
	517	2	13.792	32.1965	-0.0002
	518	2	13.791	32.1957	4.6015
	519	2	13.8051	32.2079	9.203
	520	2	13.798	32.2005	13.7945
	521	1	13.8042	32.1938	18.4094
	522	2	13.8082	32.1951	22.9958
	523	2	13.8031	32.2041	27.6059
	524	2	13.8098	32.2075	32.2058
	525	2	13.8098	32.2019	36.7977
	526	2	13.8058	32.1938	41.4038
	527	2	13.803	32.2017	45.9974
	528	2	13.8016	32.2	50.5956
	529	2	13.7918	36.7915	-0.0059
	530	1	13.8071	36.7905	4.6078
	531	2	13.7921	36.8015	9.2073
	532	1	13.7987	36.7971	13.7945
	533	2	13.8061	36.8061	18.4005
	534	2	13.7962	36.7941	23.0052
	535	2	13.8076	36.7989	27.6043
	536	2	13.7931	36.8074	32.2054
	537	2	13.7933	36.794	36.8011
	538	1	13.7912	36.8045	41.4046
	539	2	13.7905	36.8073	45.9984
	540	2	13.8028	36.7966	50.5946
	541	1	13.8024	41.3969	-0.0067
	542	2	13.8022	41.4019	4.598
	543	1	13.8042	41.3967	9.1996
	544	2	13.7982	41.4048	13.7914
	545	2	13.7908	41.409	18.3996
	546	2	13.7945	41.3987	23.007
	547	1	13.8082	41.4058	27.5972
	548	1	13.8019	41.398	32.2073
	549	2	13.7921	41.405	36.8095
	550	2	13.7973	41.4084	41.3977
	551	2	13.7958	41.3925	46.0007
	552	2	13.8059	41.4033	50.5941
	553	2	13.8088	45.9987	0.0023
	554	2	13.7957	45.9902	4.593
	555	1	13.7909	45.9918	9.2027
	556	2	13.7969	45.9916	13.8081
	557	1	13.804	46.0034	18.4053
	558	2	13.8059	45.9944	23.0079
	559	2	13.7976	46.0047	27.5936
	560	2	13.8031	45.9963	32.1914
	561	2	13.8039	45.9996	36.7923
	562	1	13.8017	46.0069	41.4072
	563	2	13.7909	45.9902	46.0038
	564	2	13.7935	46.002	50.6045
	565	2	13.8095	50.5982	0.0084
	566	2	13.8066	50.5954	4.5968
	567	2	13.8048	50.6045	9.1909
	568	1	13.8017	50.5962	13.7971
	569	2	13.7942	50.6075	18.392
	570	2	13.802	50.5914	22.9959
	571	1	13.798	50.5974	27.5973
	572	2	13.7943	50.5976	32.2031
	573	2	13.802	50.5912	36.7974
	574	2	13.8002	50.5961	41.4069
	575	2	13.8031	50.5973	45.9922
	576	2	13.8054	50.5995	50.5952
	577	2	18.3947	-0.0018	-0.0083
	578	2	18.4064	-0.0026	4.5904
	579	1	18.4082	0.0088	9.2013
	580	2	18.4012	-0.0022	13.799
	581	2	18.3995	0.003	18.4045
	582	2	18.3953	-0.0051	22.9913
	583	2	18.3901	-0.0046	27.6012
	584	2	18.4071	0.0088	32.1984
	585	2	18.4022	0.0083	36.8078
	586	2	18.3947	0.0047	41.4018
	587	2	18.4069	-0.0014	45.9955
	588	1	18.4081	0.0081	50.5934
	589	2	18.3921	4.6007	-0.0076
	590	2	18.3937	4.5948	4.5916
	591	2	18.4032	4.6071	9.1955
	592	2	18.4046	4.5966	13.8085
	593	2	18.3909	4.6002	18.3967
	594	2	18.3974	4.5962	22.9913
	595	2	18.3993	4.6014	27.607
	596	2	18.3996	4.6022	32.2062
	597	2	18.4039	4.6027	36.8038
	598	2	18.4059	4.6092	41.4095
	599	1	18.4021	4.5961	45.9904
	600	1	18.4078	4.6008	50.5932
	601	2	18.3908	9.1988	0.0032
	602	2	18.4077	9.1949	4.5951
	603	2	18.3928	9.2014	9.1965
	604	2	18.4056	9.1931	13.7953
	605	1	18.394	9.1984	18.4091
	606	2	18.4028	9.1943	22.9981
	607	2	18.3909	9.2077	27.5962
	608	2	18.4022	9.2029	32.2011
	609	1	18.406	9.1964	36.8041
	610	2	18.399	9.2061	41.4096
	611	2	18.3967	9.2081	46.0059
	612	2	18.3986	9.1998	50.5937
	613	2	18.398	13.8023	0.0005
	614	2	18.4021	13.8052	4.6021
	615	1	18.3931	13.7951	9.2092
	616	1	18.3921	13.8033	13.8043
	617	2	18.3959	13.7942	18.4042
	618	2	18.4049	13.8019	23.0048
	619	2	18.408	13.797	27.6044
	620	1	18.4016	13.7987	32.1973
	621	2	18.4019	13.7956	36.7987
	622	1	18.3992	13.7993	41.3956
	623	2	18.4007	13.8085	46.0056
	624	2	18.4006	13.8046	50.593
	625	2	18.398	18.3964	0.0007
	626	2	18.4003	18.4052	4.6065
	627	2	18.4079	18.4007	9.193
	628	2	18.4085	18.3945	13.8065
	629	2	18.3961	18.4031	18.404
	630	2	18.3946	18.3911	22.9988
	631	1	18.403	18.4099	27.6031
	632	2	18.4061	18.4073	32.2091
	633	2	18.3958	18.4048	36.7969
	634	1	18.4056	18.4014	41.4034
	635	2	18.4055	18.4042	45.9928
	636	2	18.3967	18.4022	50.6034
	637	2	18.4077	23.0063	-0.0036
	638	1	18.3942	23.0005	4.604
	639	2	18.4009	22.9972	9.1983
	640	2	18.3939	23.0031	13.8057
	641	2	18.4057	22.9992	18.4011
	642	2	18.3969	22.9904	22.9966
	643	2	18.4018	23.0059	27.606
	644	2	18.3998	22.9989	32.1991
	645	1	18.4004	23.0092	36.8017
	646	2	18.3974	23.0006	41.4081
	647	2	18.4078	22.9947	45.9961
	648	2	18.3912	23.0014	50.598
	649	1	18.4052	27.6071	0.0047
	650	1	18.4049	27.5943	4.6027
	651	1	18.395	27.6084	9.201
	652	2	18.3985	27.6003	13.7967
	653	2	18.393	27.6056	18.3914
	654	1	18.3917	27.605	23.0053
	655	2	18.4012	27.6088	27.6023
	656	2	18.3902	27.5996	32.2021
	657	1	18.4023	27.5917	36.805
	658	2	18.4042	27.5993	41.3953
	659	2	18.4049	27.5985	46.0066
	660	1	18.4016	27.6016	50.5967
	661	2	18.3914	32.209	0.0082
	662	2	18.3941	32.2044	4.5908
	663	2	18.3977	32.2054	9.2073
	664	1	18.4094	32.1949	13.801
	665	2	18.3902	32.2073	18.3941
	666	2	18.3951	32.1989	23.0055
	667	2	18.3929	32.2051	27.6091
	668	2	18.4096	32.1978	32.2086
	669	2	18.3939	32.2086	36.8047
	670	2	18.4006	32.2039	41.3931
	671	2	18.4029	32.1998	45.9946
	672	1	18.4057	32.2095	50.5954
	673	1	18.4061	36.8068	-0.0052
	674	2	18.4093	36.7912	4.5907
	675	1	18.3933	36.8048	9.1989
	676	2	18.3921	36.7921	13.8081
	677	2	18.3913	36.8072	18.4086
	678	1	18.3979	36.8096	22.9947
	679	2	18.405	36.8099	27.596
	680	2	18.4061	36.8041	32.2002
	681	2	18.3906	36.8051	36.804
	682	2	18.4069	36.7948	41.4003
	683	2	18.3976	36.7958	45.9923
	684	2	18.395	36.7954	50.5961
	685	2	18.4069	41.3913	-0.0067
	686	2	18.401	41.3966	4.6093
	687	1	18.4059	41.3993	9.1979
	688	1	18.4042	41.4066	13.7912
	689	2	18.4075	41.3921	18.4082
	690	1	18.3997	41.3905	22.9903
	691	1	18.3936	41.3973	27.6023
	692	1	18.4042	41.4056	32.2009
	693	1	18.4081	41.3968	36.7928
	694	2	18.3994	41.403	41.4062
	695	2	18.4054	41.4037	46.0015
	696	2	18.403	41.3963	50.5912
	697	2	18.3973	46.0033	-0.0053
	698	2	18.3978	46.0053	4.5961
	699	2	18.4087	46.0088	9.2062
	700	2	18.4093	45.9903	13.7906
	701	2	18.3926	45.9935	18.3939
	702	2	18.4055	45.9984	23.0099
	703	2	18.403	45.9973	27.6048
	704	1	18.4043	46.0027	32.2088
	705	2	18.3924	46.0017	36.8052
	706	2	18.3937	46.0069	41.3942
	707	2	18.4035	45.9971	46.0069
	708	2	18.4067	45.9936	50.6063
	709	2	18.4079	50.6066	0.003
	710	2	18.401	50.5986	4.6071
	711	1	18.4087	50.6005	9.1922
	712	1	18.3932	50.6027	13.7981
	713	2	18.399	50.5904	18.4059
	714	2	18.3943	50.6068	23.0007
	715	1	18.3936	50.6021	27.5954
	716	2	18.3995	50.6091	32.1902
	717	2	18.3944	50.5999	36.7963
	718	1	18.4076	50.593	41.3905
	719	1	18.3986	50.5997	45.996
	720	1	18.3951	50.6009	50.6096
	721	2	23.0066	0.0011	0.0058
	722	2	23.0033	0.0063	4.5942
	723	2	22.9939	0.0028	9.2034
	724	2	23.0058	-0.0068	13.8056
	725	1	22.9936	-0.0001	18.4073
	726	2	22.9941	-0.0096	22.9947
	727	2	23.0	-0.0002	27.6082
	728	2	22.9983	-0.0083	32.2023
	729	2	23.002	-0.0027	36.7969
	730	2	23.001	0.005	41.3931
	731	2	23.009	-0.004	45.9979
	732	2	22.9967	-0.0062	50.6043
	733	2	22.9973	4.596	-0.0086
	734	1	23.0042	4.5924	4.6052
	735	2	23.0027	4.5952	9.2021
	736	2	23.0068	4.5971	13.7984
	737	2	23.0088	4.6044	18.3918
	738	1	22.999	4.605	23.0092
	739	2	22.9977	4.6037	27.5988
	740	1	23.0012	4.6011	32.2092
	741	1	23.0061	4.6071	36.8077
	742	2	22.9979	4.6043	41.396
	743	2	23.0024	4.6074	46.0059
	744	2	22.9906	4.5949	50.5993
	745	2	23.0025	9.1904	0.0035
	746	1	23.001	9.2088	4.592
	747	1	22.9962	9.1908	9.1913
	748	2	23.0099	9.2049	13.7964
	749	1	22.9991	9.1957	18.4
	750	1	23.0029	9.1949	23.0093
	751	2	23.0058	9.1978	27.5905
	752	2	22.9939	9.2012	32.2087
	753	1	23.0089	9.2075	36.7935
	754	2	23.001	9.1983	41.4091
	755	1	23.0032	9.2012	45.9991
	756	1	22.9937	9.2048	50.6037
	757	2	22.9925	13.8018	-0.0013
	758	2	22.9978	13.8042	4.6029
	759	2	22.9996	13.8075	9.1916
	760	2	23.0017	13.8011	13.8046
	761	2	23.0014	13.7917	18.4084
	762	1	22.9944	13.7952	22.9949
	763	1	23.0013	13.8041	27.5978
	764	2	23.01	13.808	32.1938
	765	2	23.0057	13.7984	36.8002
	766	1	22.9937	13.7972	41.4031
	767	1	23.0059	13.7922	46.0056
	768	2	23.0031	13.7926	50.6024
	769	2	22.9975	18.4078	0.003
	770	2	23.0082	18.3993	4.5978
	771	2	22.9944	18.3907	9.1967
	772	1	22.9924	18.408	13.8001
	773	1	22.9942	18.3962	18.3902
	774	2	22.9924	18.393	23.0013
	775	2	22.9966	18.3912	27.6085
	776	2	22.9914	18.3995	32.2018
	777	2	22.9959	18.4029	36.8006
	778	1	23.0036	18.4024	41.3927
	779	2	22.9909	18.3945	46.0016
	780	2	23.0011	18.3955	50.5949
	781	2	22.9916	23.0041	0.0031
	782	2	22.9991	22.9975	4.5956
	783	1	22.9986	23.0003	9.1937
	784	2	22.9917	22.9944	13.8077
	785	2	23.0013	22.9945	18.4044
	786	2	23.0059	22.9905	22.9973
	787	2	22.9961	22.9953	27.6017
	788	1	22.9951	22.9996	32.2078
	789	2	22.9972	23.0029	36.7992
	790	2	23.0057	22.9957	41.398
	791	2	23.0076	23.0051	45.9983
	792	1	22.9919	22.9943	50.6088
	793	2	22.9989	27.5969	-0.0011
	794	1	23.0079	27.5976	4.6078
	795	2	23.0055	27.6031	9.1962
	796	1	22.9903	27.6007	13.7964
	797	2	22.9926	27.5919	18.4028
	798	1	23.0029	27.596	23.006
	799	2	23.0062	27.6004	27.5975
	800	2	23.0056	27.5917	32.2009
	801	1	23.0001	27.6069	36.8006
	802	1	23.0034	27.5977	41.4069
	803	2	22.9915	27.595	46.007
	804	2	23.004	27.5953	50.5997
	805	2	23.0009	32.2048	-0.006
	806	1	22.9933	32.2031	4.6051
	807	2	22.9911	32.2025	9.2001
	808	2	23.0066	32.1905	13.7985
	809	2	23.0078	32.1977	18.4065
	810	2	23.0036	32.2064	23.004
	811	2	23.006	32.2001	27.6038
	812	2	23.0098	32.1928	32.2064
	813	2	22.9982	32.1907	36.799
	814	1	23.0051	32.1977	41.3933
	815	1	23.0081	32.1982	46.006
	816	2	23.004	32.1933	50.6032
	817	2	22.9969	36.8052	-0.0028
	818	1	22.9938	36.7946	4.5913
	819	2	23.0039	36.7913	9.2094
	820	2	22.9959	36.806	13.7904
	821	2	22.9949	36.8004	18.3945
	822	2	23.0076	36.7926	22.997
	823	2	22.9975	36.791	27.6038
	824	2	23.0084	36.8076	32.1953
	825	2	23.0098	36.8036	36.8003
	826	2	23.0049	36.8026	41.394
	827	2	22.9969	36.793	45.9943
	828	1	22.9976	36.8045	50.5907
	829	2	22.9978	41.4033	-0.0051
	830	1	22.9977	41.3972	4.5993
	831	2	23.0026	41.4068	9.2082
	832	1	22.9906	41.4063	13.7979
	833	2	22.9945	41.3945	18.401
	834	2	23.0006	41.3987	22.9948
	835	1	23.0071	41.4011	27.5911
	836	2	22.9987	41.4079	32.1967
	837	2	22.9989	41.3996	36.7902
	838	2	22.9984	41.3925	41.3919
	839	2	23.0002	41.3908	45.9953
	840	1	23.0078	41.4072	50.6028
	841	2	23.0031	45.9927	-0.0057
	842	1	23.0092	45.9951	4.6019
	843	1	23.0011	45.9902	9.1912
	844	2	23.0075	46.0094	13.8036
	845	2	22.9904	46.0086	18.3948
	846	2	23.0086	45.9922	22.9958
	847	2	22.9929	45.9952	27.5922
	848	2	23.0054	45.996	32.2006
	849	2	22.993	45.9955	36.7934
	850	2	23.009	46.0046	41.3972
	851	2	23.003	45.9961	46.0063
	852	2	22.9937	46.0084	50.5954
	853	2	22.9996	50.5934	0.0098
	854	1	23.0027	50.6027	4.5977
	855	2	23.0058	50.6024	9.1931
	856	1	23.001	50.6094	13.7953
	857	1	23.0073	50.6093	18.4034
	858	2	23.0068	50.6017	23.0024
	859	2	22.9959	50.6057	27.6063
	860	2	23.0019	50.6082	32.2012
	861	1	23.0023	50.6075	36.7904
	862	2	23.0077	50.6076	41.3926
	863	2	22.9921	50.5919	45.9952
	864	2	22.9914	50.6015	50.5924
	865	2	27.5963	-0.0024	-0.0022
	866	2	27.6017	0.008	4.6034
	867	2	27.6062	0.009	9.2067
	868	1	27.6061	-0.0008	13.7952
	869	1	27.6016	0.0082	18.3945
	870	2	27.5924	0.0094	23.01
	871	2	27.6072	-0.0081	27.5935
	872	1	27.601	0.0073	32.2054
	873	2	27.603	0.0002	36.8077
	874	2	27.5947	-0.0078	41.4053
	875	2	27.5982	0.0003	46.0079
	876	2	27.5938	-0.007	50.5967
	877	1	27.6087	4.6079	-0.0085
	878	2	27.5932	4.6093	4.6005
	879	2	27.6075	4.6086	9.1925
	880	1	27.6012	4.6084	13.7986
	881	2	27.6022	4.5933	18.3925
	882	2	27.6005	4.6025	23.0007
	883	1	27.6091	4.5999	27.6059
	884	1	27.5997	4.6011	32.2027
	885	1	27.5977	4.5945	36.8075
	886	2	27.5992	4.6001	41.3944
	887	2	27.5968	4.6056	46.0044
	888	2	27.5936	4.6076	50.599
	889	2	27.5984	9.2097	-0.002
	890	2	27.6009	9.207	4.5952
	891	2	27.5946	9.1992	9.2069
	892	1	27.592	9.2083	13.7955
	893	1	27.5981	9.1935	18.4095
	894	1	27.5977	9.2031	22.9929
	895	2	27.6066	9.2082	27.5932
	896	2	27.5951	9.1957	32.202
	897	2	27.6035	9.2051	36.7946
	898	1	27.6053	9.1999	41.408
	899	1	27.5981	9.2029	46.0034
	900	2	27.6055	9.208	50.6086
	901	2	27.6069	13.8011	-0.0072
	902	1	27.5917	13.8094	4.5992
	903	2	27.6087	13.7915	9.2031
	904	2	27.6071	13.7941	13.7951
	905	2	27.5999	13.793	18.3937
	906	2	27.5955	13.7928	23.0034
	907	2	27.5927	13.7948	27.605
	908	1	27.5902	13.8018	32.1975
	909	1	27.6036	13.7942	36.7918
	910	2	27.5971	13.7915	41.4009
	911	2	27.5964	13.8033	46.0076
	912	2	27.5981	13.8079	50.5986
	913	1	27.5991	18.3969	-0.0053
	914	2	27.595	18.4063	4.5974
	915	1	27.5993	18.4062	9.2069
	916	2	27.5958	18.3968	13.7951
	917	2	27.5921	18.4012	18.4015
	918	2	27.5975	18.3942	23.0098
	919	2	27.604	18.3982	27.5928
	920	2	27.6011	18.4076	32.2004
	921	2	27.5953	18.4094	36.7965
	922	2	27.6023	18.3909	41.4051
	923	2	27.6092	18.4033	45.9999
	924	2	27.5922	18.4034	50.5909
	925	1	27.6002	23.0028	-0.0092
	926	2	27.6051	22.9932	4.6075
	927	2	27.6018	23.0023	9.2024
	928	2	27.6081	22.9949	13.8015
	929	1	27.6071	23.0044	18.4094
	930	2	27.5933	23.0053	22.9996
	931	2	27.6017	22.9995	27.6067
	932	1	27.6008	23.0015	32.2064
	933	2	27.6076	23.0098	36.7985
	934	2	27.5912	23.0091	41.3914
	935	2	27.6031	22.9972	45.995
	936	1	27.5974	22.9901	50.5965
	937	2	27.6025	27.5936	0.0095
	938	2	27.6068	27.6059	4.5936
	939	1	27.6081	27.6011	9.2042
	940	2	27.5913	27.605	13.8035
	941	2	27.604	27.609	18.3934
	942	2	27.5926	27.6002	23.0089
	943	2	27.595	27.6037	27.6099
	944	2	27.6054	27.591	32.2075
	945	2	27.5995	27.6034	36.8079
	946	1	27.6037	27.603	41.3951
	947	1	27.5904	27.6077	46.0014
	948	2	27.6044	27.5945	50.5964
	949	2	27.5967	32.2053	0.0077
	950	2	27.5945	32.1937	4.6044
	951	1	27.6005	32.2039	9.2075
	952	2	27.6046	32.2023	13.8046
	953	1	27.5921	32.2091	18.4021
	954	2	27.5963	32.2026	23.0083
	955	2	27.6011	32.1961	27.5925
	956	1	27.5984	32.1983	32.1957
	957	1	27.5968	32.2039	36.7951
	958	2	27.5972	32.2071	41.3969
	959	2	27.6098	32.1993	45.9971
	960	2	27.6021	32.1948	50.6065
	961	2	27.5945	36.7945	0.005
	962	2	27.5929	36.8034	4.6098
	963	2	27.6044	36.794	9.1915
	964	1	27.5993	36.8075	13.8009
	965	2	27.603	36.8055	18.4018
	966	1	27.596	36.8036	22.9913
	967	2	27.5954	36.807	27.6095
	968	1	27.5946	36.8014	32.1926
	969	2	27.6075	36.8028	36.796
	970	2	27.5962	36.809	41.402
	971	2	27.5928	36.7905	45.998
	972	2	27.5987	36.8085	50.6003
	973	2	27.6075	41.4021	-0.0043
	974	2	27.5921	41.396	4.6095
	975	2	27.6096	41.3989	9.206
	976	1	27.5982	41.3913	13.8058
	977	2	27.5974	41.4017	18.3995
	978	2	27.6004	41.3958	23.0007
	979	2	27.5989	41.3938	27.6047
	980	2	27.6085	41.4031	32.1923
	981	2	27.6046	41.4086	36.8059
	982	2	27.6	41.3986	41.4063
	983	2	27.5959	41.3909	46.0006
	984	2	27.5999	41.3949	50.5943
	985	2	27.6031	45.9947	-0.0037
	986	2	27.6058	45.9991	4.5928
	987	2	27.6022	45.9926	9.1988
	988	2	27.6007	46.0061	13.8097
	989	2	27.6063	45.9959	18.4036
	990	1	27.6058	46.0084	23.0087
	991	2	27.602	45.9924	27.5903
	992	2	27.606	45.9946	32.194
	993	2	27.6026	45.9952	36.7958
	994	2	27.5958	45.9978	41.4013
	995	1	27.6092	46.0093	46.0021
	996	2	27.6054	45.9949	50.6084
	997	2	27.5987	50.5973	-0.0044
	998	2	27.5974	50.6019	4.5909