Nickle Copper Simulation

666 	atoms
0 	bonds
0 	angles
0 	dihedrals
0 	impropers

2	atom types
0	bond types
0	angle types
0	dihedral types
0	improper types

-0.02	23.02	xlo xhi
-0.02	23.02	ylo yhi
-0.02	23.02	zlo zhi

Atoms

	1	2	-0.0066	-0.0094	-0.0043
	2	2	-0.0001	-0.0083	4.5911
	3	1	0.0055	-0.0099	9.2003
	4	1	-0.0038	0.0037	13.7953
	5	2	0.0008	0.0002	18.3909
	6	2	-0.0078	-0.0072	22.9908
	7	2	-0.0057	4.6084	0.0079
	8	1	0.0012	4.6056	4.6037
	9	2	-0.0091	4.6006	9.2037
	10	1	0.0032	4.596	13.797
	11	2	-0.0021	4.6075	18.393
	12	2	0.0035	4.598	22.9973
	13	2	-0.0084	9.1998	-0.003
	14	2	-0.01	9.2057	4.6005
	15	2	0.0065	9.2053	9.1909
	16	2	-0.0036	9.2032	13.8075
	17	2	-0.0049	9.2081	18.4001
	18	1	-0.0075	9.1911	23.0025
	19	1	0.0075	13.802	-0.0095
	20	1	-0.0065	13.8037	4.6013
	21	2	0.0099	13.804	9.2081
	22	2	0.0081	13.7954	13.7954
	23	1	-0.0053	13.8008	18.3986
	24	2	0.0098	13.7983	23.002
	25	1	0.0038	18.3905	-0.0027
	26	2	-0.0017	18.394	4.5965
	27	2	0.0063	18.3996	9.193
	28	2	0.0068	18.3945	13.8075
	29	2	-0.0041	18.4046	18.3928
	30	2	-0.0093	18.4048	22.992
	31	2	0.0088	22.9957	-0.0059
	32	2	-0.0099	22.9903	4.5927
	33	2	-0.0003	23.0083	9.2071
	34	2	0.0014	23.0051	13.8058
	35	1	0.001	22.9946	18.4015
	36	1	-0.0039	23.0092	22.9955
	37	2	4.609	-0.0096	-0.0002
	38	1	4.5996	0.0045	4.592
	39	1	4.5993	0.0026	9.2097
	40	1	4.5939	-0.0057	13.7971
	41	1	4.591	0.01	18.3997
	42	2	4.5901	0.002	22.9976
	43	2	4.5902	4.5987	-0.0081
	44	2	4.5977	4.5976	4.6099
	45	1	4.6034	4.6057	9.2033
	46	2	4.5981	4.6031	13.8027
	47	2	4.5981	4.6076	18.3908
	48	2	4.6011	4.5982	23.0039
	49	2	4.5967	9.1994	0.0041
	50	2	4.6	9.1936	4.597
	51	2	4.6053	9.1916	9.1922
	52	1	4.6053	9.2001	13.7983
	53	1	4.5914	9.2036	18.407
	54	2	4.6091	9.2044	22.9905
	55	2	4.6078	13.797	0.0093
	56	2	4.5983	13.7919	4.5983
	57	2	4.6059	13.792	9.2054
	58	2	4.6017	13.8039	13.8012
	59	2	4.5916	13.8088	18.4044
	60	1	4.5937	13.8007	23.0088
	61	2	4.5986	18.3941	0.0044
	62	2	4.6092	18.4055	4.5996
	63	2	4.5952	18.4069	9.1941
	64	2	4.6042	18.4026	13.7976
	65	2	4.6049	18.3904	18.4094
	66	2	4.5997	18.401	22.9987
	67	2	4.5968	23.0028	0.003
	68	2	4.5935	22.9963	4.6087
	69	1	4.5971	22.9901	9.2091
	70	1	4.5948	23.0037	13.7911
	71	1	4.595	23.0053	18.3912
	72	2	4.5982	23.0019	22.9934
	73	1	9.2023	-0.0012	-0.0084
	74	2	9.2068	0.0014	4.5985
	75	2	9.1995	0.0032	9.2056
	76	2	9.1916	0.0099	13.8073
	77	1	9.2024	-0.0047	18.4084
	78	2	9.1926	0.0051	23.0008
	79	2	9.191	4.5943	-0.0023
	80	1	9.1989	4.5902	4.5911
	81	2	9.1919	4.591	9.207
	82	2	9.2008	4.5948	13.7985
	83	2	9.1987	4.5996	18.3906
	84	2	9.2075	4.609	23.0063
	85	1	9.1927	9.1945	0.0087
	86	2	9.194	9.1933	4.5966
	87	2	9.2089	9.2045	9.1947
	88	2	9.1949	9.2072	13.8003
	89	1	9.1955	9.2034	18.4076
	90	2	9.2033	9.2092	22.99
	91	2	9.1919	13.8072	-0.0042
	92	2	9.1958	13.7953	4.5973
	93	2	9.2095	13.8088	9.1927
	94	2	9.2039	13.7909	13.8093
	95	1	9.1949	13.8086	18.396
	96	2	9.2032	13.8004	23.0072
	97	2	9.1954	18.3901	-0.0068
	98	2	9.195	18.4095	4.6037
	99	1	9.2041	18.4068	9.2024
	100	2	9.1987	18.4018	13.8043
	101	1	9.2018	18.3983	18.4005
	102	2	9.1941	18.408	22.998
	103	2	9.1955	23.0036	0.0015
	104	1	9.2049	23.0034	4.5969
	105	1	9.1943	22.9963	9.194
	106	2	9.2066	22.995	13.806
	107	2	9.2038	22.9999	18.4044
	108	2	9.1957	22.9918	22.9965
	109	2	13.7935	-0.0019	0.0066
	110	2	13.8084	-0.0036	4.5915
	111	2	13.804	-0.0078	9.2006
	112	2	13.7991	-0.0094	13.8053
	113	2	13.8034	0.0069	18.3927
	114	2	13.8049	0.0095	23.0043
	115	2	13.8041	4.6014	0.0086
	116	1	13.791	4.5936	4.5976
	117	1	13.7922	4.6079	9.1953
	118	2	13.7904	4.6067	13.7922
	119	1	13.8011	4.5935	18.4098
	120	2	13.8083	4.5928	22.9969
	121	2	13.7989	9.2027	0.0096
	122	2	13.8052	9.2014	4.599
	123	2	13.7954	9.2081	9.2082
	124	1	13.8038	9.1935	13.7981
	125	2	13.7906	9.1921	18.3993
	126	2	13.8026	9.198	23.0007
	127	1	13.8013	13.8027	-0.0076
	128	2	13.7907	13.7921	4.6082
	129	2	13.8011	13.8085	9.1935
	130	2	13.8063	13.8001	13.7951
	131	2	13.7938	13.8012	18.3932
	132	2	13.7949	13.7911	22.9982
	133	1	13.7958	18.4037	0.0071
	134	2	13.7992	18.4017	4.6077
	135	2	13.8	18.4032	9.1969
	136	1	13.7959	18.3917	13.79
	137	2	13.7953	18.3952	18.3933
	138	2	13.8042	18.4018	23.009
	139	2	13.7911	23.0037	0.0067
	140	2	13.8082	23.0047	4.5924
	141	2	13.7933	23.0014	9.2014
	142	2	13.7989	23.0032	13.8038
	143	2	13.7957	23.0084	18.3941
	144	2	13.7942	23.0059	23.0035
	145	2	18.406	-0.0048	0.0068
	146	1	18.4044	0.0066	4.6009
	147	2	18.4012	0.0043	9.1901
	148	2	18.3975	0.0058	13.7977
	149	2	18.4073	-0.0098	18.4004
	150	2	18.4098	0.0054	22.9978
	151	1	18.4019	4.6068	-0.0032
	152	1	18.3906	4.5943	4.5915
	153	2	18.3949	4.6036	9.2076
	154	2	18.4095	4.5929	13.7968
	155	2	18.3952	4.6064	18.3947
	156	2	18.395	4.5944	22.9971
	157	2	18.3999	9.2028	0.0042
	158	1	18.3949	9.2013	4.6052
	159	1	18.4027	9.1985	9.2053
	160	1	18.4003	9.2019	13.7981
	161	1	18.3914	9.208	18.4087
	162	2	18.407	9.2022	22.9944
	163	1	18.4034	13.8048	-0.0051
	164	1	18.3993	13.8056	4.5914
	165	2	18.3957	13.7918	9.1968
	166	2	18.3935	13.8063	13.7904
	167	1	18.4064	13.8063	18.4065
	168	2	18.4067	13.8006	22.9919
	169	2	18.4085	18.3999	-0.0079
	170	2	18.4067	18.3949	4.6078
	171	2	18.3924	18.4055	9.2073
	172	2	18.4046	18.4027	13.8053
	173	2	18.3956	18.3992	18.4011
	174	2	18.4091	18.4022	23.0088
	175	1	18.4017	23.0011	0.0056
	176	2	18.4003	22.9911	4.5946
	177	2	18.4008	23.0004	9.2088
	178	1	18.4089	22.9911	13.7971
	179	1	18.3984	23.0097	18.4033
	180	2	18.399	23.0017	22.9914
	181	1	23.0065	0.0067	-0.0089
	182	1	22.9911	0.0013	4.6058
	183	2	23.0025	-0.0095	9.2032
	184	2	22.9997	0.0029	13.8072
	185	2	22.9922	0.0035	18.39
	186	2	23.0095	0.0012	22.9972
	187	2	23.0009	4.5988	-0.0089
	188	1	22.9973	4.6093	4.5937
	189	2	23.0075	4.591	9.2015
	190	2	22.9924	4.5905	13.7974
	191	2	23.0087	4.5967	18.4076
	192	1	23.0072	4.5988	23.0027
	193	1	23.0088	9.2075	-0.0054
	194	1	23.0036	9.2086	4.5994
	195	2	22.9933	9.2022	9.2008
	196	2	23.0036	9.1912	13.8007
	197	2	23.0052	9.1963	18.4013
	198	2	23.0086	9.2045	22.991
	199	2	23.0033	13.8092	-0.0007
	200	2	23.0089	13.7997	4.6088
	201	2	23.0053	13.7958	9.2024
	202	1	22.992	13.8077	13.7952
	203	2	23.0041	13.8015	18.4002
	204	2	23.0019	13.8034	22.9931
	205	2	23.0049	18.4032	0.0059
	206	2	23.0025	18.3942	4.6006
	207	2	23.0048	18.4029	9.2014
	208	2	23.0018	18.3963	13.7974
	209	1	22.9902	18.4059	18.391
	210	2	23.002	18.3904	22.9963
	211	1	23.0037	23.0071	0.0051
	212	2	22.9921	22.9951	4.5928
	213	2	22.9931	22.9943	9.2008
	214	2	23.0097	22.999	13.8022
	215	2	23.0021	22.992	18.4038
	216	1	23.0055	22.9904	22.9933
	217	2	2.2946	2.3071	0.0038
	218	2	2.2954	2.291	4.6028
	219	2	2.3069	2.306	9.2076
	220	2	2.3004	2.309	13.795
	221	2	2.2929	2.3036	18.4092
	222	2	2.3017	2.2963	22.9959
	223	2	2.3041	6.8905	-0.0008
	224	2	2.2991	6.9054	4.6061
	225	2	2.2932	6.9	9.2034
	226	2	2.3031	6.8988	13.8026
	227	2	2.2982	6.9083	18.4075
	228	1	2.3029	6.8969	22.9912
	229	1	2.3003	11.5086	0.0077
	230	2	2.3001	11.4965	4.6066
	231	2	2.2975	11.4914	9.1986
	232	2	2.2961	11.4913	13.8028
	233	2	2.3029	11.4988	18.3998
	234	2	2.2954	11.5039	23.0033
	235	2	2.3075	16.1066	0.002
	236	2	2.2991	16.1045	4.5945
	237	2	2.2977	16.099	9.204
	238	1	2.2969	16.0926	13.8098
	239	2	2.2914	16.1028	18.4079
	240	1	2.299	16.1089	22.9971
	241	2	2.2992	20.7053	0.005
	242	2	2.309	20.6966	4.6073
	243	2	2.2946	20.6987	9.2067
	244	1	2.2994	20.7085	13.7977
	245	2	2.297	20.7038	18.4036
	246	1	2.296	20.701	22.9934
	247	1	6.9001	2.3084	0.0005
	248	2	6.8966	2.2907	4.5962
	249	2	6.9034	2.3096	9.1966
	250	1	6.8933	2.3099	13.7918
	251	2	6.9076	2.3092	18.3952
	252	2	6.9022	2.3029	22.9922
	253	2	6.8995	6.909	0.0037
	254	2	6.8939	6.8901	4.5996
	255	2	6.9057	6.8935	9.196
	256	2	6.9002	6.9003	13.8094
	257	2	6.909	6.8906	18.406
	258	2	6.8915	6.9025	23.0018
	259	2	6.908	11.5009	0.0053
	260	2	6.9093	11.5032	4.5972
	261	2	6.9096	11.4997	9.1938
	262	1	6.9044	11.4955	13.8048
	263	1	6.9019	11.4981	18.3948
	264	2	6.89	11.5069	23.0023
	265	1	6.9005	16.0968	-0.0097
	266	1	6.9003	16.107	4.6026
	267	2	6.8916	16.1085	9.1921
	268	2	6.8952	16.1087	13.8036
	269	2	6.8936	16.0985	18.4048
	270	2	6.8901	16.1052	22.9971
	271	2	6.9013	20.7046	0.0085
	272	2	6.8932	20.7077	4.6056
	273	2	6.8912	20.7081	9.2021
	274	2	6.8992	20.7018	13.802
	275	1	6.8948	20.6972	18.4066
	276	2	6.8983	20.6993	23.0084
	277	2	11.503	2.2997	0.0017
	278	2	11.4946	2.2999	4.5979
	279	2	11.5039	2.3089	9.1975
	280	2	11.5037	2.3044	13.7966
	281	2	11.5027	2.3065	18.4081
	282	1	11.5013	2.3047	22.9919
	283	2	11.4997	6.8907	0.0088
	284	2	11.4955	6.8983	4.5998
	285	2	11.4942	6.8986	9.1958
	286	1	11.5073	6.9033	13.8067
	287	1	11.4983	6.9051	18.4062
	288	2	11.4993	6.8972	22.9966
	289	2	11.4936	11.5093	-0.0032
	290	1	11.5038	11.5072	4.6007
	291	2	11.5072	11.4909	9.2035
	292	1	11.4965	11.5092	13.8085
	293	1	11.503	11.5017	18.3923
	294	2	11.4917	11.5086	23.0037
	295	1	11.4968	16.0983	0.0
	296	2	11.5096	16.1021	4.6008
	297	2	11.5006	16.1045	9.2018
	298	2	11.4971	16.0969	13.8018
	299	2	11.4994	16.1012	18.392
	300	2	11.5076	16.1076	23.0032
	301	1	11.5035	20.6932	-0.005
	302	2	11.5062	20.7021	4.5998
	303	2	11.5013	20.7072	9.2023
	304	2	11.4949	20.6948	13.7996
	305	2	11.5069	20.7028	18.4046
	306	2	11.4992	20.7061	23.0011
	307	2	16.09	2.2918	0.0066
	308	2	16.0906	2.3078	4.5914
	309	2	16.0934	2.3024	9.1988
	310	2	16.1079	2.3005	13.8043
	311	2	16.0934	2.3091	18.3978
	312	2	16.0921	2.294	22.9948
	313	2	16.1055	6.9073	0.0027
	314	2	16.0967	6.8986	4.5938
	315	2	16.106	6.9034	9.1978
	316	2	16.0949	6.8944	13.7972
	317	1	16.1065	6.9096	18.4068
	318	1	16.0958	6.9021	22.9953
	319	1	16.0948	11.5089	0.0095
	320	2	16.0935	11.5059	4.5971
	321	2	16.0969	11.4915	9.1988
	322	2	16.1062	11.4989	13.8075
	323	2	16.1068	11.5026	18.408
	324	2	16.1003	11.4973	23.0014
	325	2	16.0906	16.0989	0.0079
	326	2	16.091	16.093	4.6059
	327	2	16.1023	16.0992	9.2061
	328	1	16.0903	16.0907	13.805
	329	2	16.1038	16.093	18.3996
	330	2	16.1097	16.1014	23.0051
	331	2	16.1026	20.7065	0.0064
	332	2	16.0913	20.6925	4.5958
	333	2	16.1033	20.6985	9.1908
	334	2	16.1028	20.7097	13.7968
	335	2	16.104	20.6919	18.4007
	336	2	16.0953	20.7067	22.994
	337	2	20.7015	2.3015	-0.002
	338	1	20.7063	2.2991	4.6061
	339	2	20.6935	2.2924	9.2004
	340	1	20.7098	2.2963	13.8
	341	1	20.7049	2.3016	18.3979
	342	2	20.6967	2.3067	23.0038
	343	2	20.6931	6.9002	-0.0038
	344	2	20.7005	6.8934	4.5948
	345	2	20.7089	6.9025	9.2036
	346	2	20.6903	6.9056	13.8076
	347	2	20.7031	6.9055	18.3978
	348	2	20.7007	6.8909	22.9947
	349	2	20.6914	11.502	-0.0091
	350	2	20.6907	11.5035	4.6027
	351	2	20.6975	11.4909	9.2044
	352	2	20.7091	11.5	13.7961
	353	2	20.6938	11.4907	18.4099
	354	2	20.7046	11.5093	23.0034
	355	2	20.6919	16.1081	-0.0005
	356	1	20.7064	16.0921	4.6091
	357	2	20.6937	16.1081	9.2023
	358	2	20.7018	16.1088	13.8025
	359	2	20.6989	16.1046	18.4028
	360	2	20.6946	16.0985	22.9993
	361	1	20.6998	20.6987	-0.0073
	362	2	20.6937	20.7021	4.5948
	363	1	20.6978	20.6921	9.2054
	364	1	20.7036	20.7093	13.7946
	365	2	20.7083	20.7072	18.4018
	366	1	20.6916	20.7034	23.0035
	367	2	2.3084	-0.0056	2.2914
	368	2	2.3022	-0.0004	6.8979
	369	2	2.2996	-0.0045	11.4917
	370	1	2.3005	-0.0005	16.0908
	371	1	2.2911	-0.0034	20.6984
	372	2	2.2921	4.5977	2.306
	373	2	2.3034	4.6074	6.9058
	374	1	2.2909	4.6056	11.5019
	375	2	2.2974	4.5977	16.1047
	376	2	2.2938	4.5924	20.7053
	377	2	2.2946	9.1958	2.2915
	378	2	2.3058	9.2012	6.9095
	379	2	2.3037	9.192	11.4986
	380	2	2.2907	9.1967	16.1004
	381	2	2.2978	9.1912	20.6969
	382	2	2.3001	13.8063	2.2901
	383	2	2.3093	13.7927	6.9013
	384	2	2.3023	13.793	11.4951
	385	2	2.2982	13.7978	16.1075
	386	2	2.3028	13.8042	20.7
	387	2	2.2916	18.3938	2.2979
	388	1	2.2933	18.3982	6.9004
	389	2	2.3087	18.4098	11.5055
	390	1	2.294	18.395	16.0924
	391	2	2.3084	18.4035	20.7008
	392	2	2.3078	22.998	2.2927
	393	2	2.306	23.0072	6.9047
	394	2	2.3041	23.0085	11.509
	395	1	2.2933	22.9959	16.1024
	396	2	2.3067	22.9926	20.7017
	397	2	6.896	0.0031	2.2963
	398	2	6.8987	0.0035	6.9037
	399	2	6.9057	0.0092	11.4961
	400	2	6.9066	0.0008	16.0945
	401	2	6.8968	0.0063	20.6961
	402	2	6.8973	4.6087	2.3042
	403	2	6.8942	4.605	6.9013
	404	2	6.9086	4.5966	11.5032
	405	1	6.8939	4.5919	16.0933
	406	2	6.9033	4.5963	20.702
	407	2	6.9098	9.21	2.3057
	408	1	6.9004	9.2055	6.9074
	409	2	6.8992	9.2094	11.4973
	410	2	6.8945	9.1907	16.0951
	411	2	6.8964	9.1928	20.6923
	412	2	6.9026	13.8024	2.2931
	413	2	6.8924	13.8007	6.9067
	414	1	6.8926	13.7984	11.5026
	415	2	6.9099	13.8045	16.0998
	416	2	6.892	13.801	20.6902
	417	2	6.8951	18.3906	2.3028
	418	2	6.9013	18.4051	6.8955
	419	2	6.8934	18.3907	11.5035
	420	1	6.8998	18.4077	16.0916
	421	2	6.8926	18.4096	20.7015
	422	1	6.9071	22.9952	2.3025
	423	2	6.8972	23.0055	6.8911
	424	1	6.8912	23.0033	11.4918
	425	2	6.9011	23.008	16.104
	426	2	6.9011	23.0062	20.7043
	427	2	11.4972	0.002	2.3092
	428	1	11.5074	-0.0057	6.9039
	429	1	11.5052	-0.0052	11.5086
	430	2	11.5015	-0.0056	16.1084
	431	2	11.4974	-0.0083	20.6952
	432	2	11.4976	4.5922	2.3001
	433	2	11.5054	4.5944	6.897
	434	2	11.5014	4.5935	11.5022
	435	2	11.5009	4.6072	16.106
	436	2	11.4922	4.5908	20.7013
	437	2	11.4955	9.2044	2.2994
	438	2	11.5028	9.1914	6.8969
	439	1	11.4922	9.1901	11.4991
	440	2	11.499	9.1991	16.1032
	441	2	11.496	9.192	20.7009
	442	1	11.4973	13.7927	2.2938
	443	2	11.4991	13.801	6.9062
	444	2	11.5038	13.8038	11.4961
	445	1	11.4993	13.7959	16.1042
	446	2	11.4934	13.7905	20.7079
	447	1	11.5023	18.4056	2.3076
	448	2	11.5016	18.4064	6.9021
	449	2	11.4954	18.4076	11.5064
	450	1	11.5	18.408	16.0905
	451	2	11.4994	18.3949	20.7092
	452	2	11.4948	22.992	2.2911
	453	2	11.5088	23.009	6.9095
	454	2	11.5098	22.9947	11.4975
	455	2	11.5099	22.9928	16.1072
	456	1	11.4941	23.004	20.6912
	457	1	16.0918	0.0031	2.2926
	458	2	16.1065	0.0008	6.9035
	459	1	16.0945	-0.003	11.5001
	460	2	16.0938	0.0069	16.0964
	461	2	16.0953	-0.0	20.6912
	462	1	16.1091	4.6047	2.2941
	463	2	16.0916	4.5948	6.8952
	464	1	16.1087	4.6085	11.5059
	465	2	16.0976	4.5901	16.0982
	466	2	16.1072	4.6063	20.7099
	467	2	16.1031	9.201	2.306
	468	2	16.1035	9.2048	6.9064
	469	1	16.0904	9.2091	11.4934
	470	2	16.0967	9.1941	16.101
	471	1	16.093	9.1982	20.691
	472	2	16.0952	13.8013	2.2992
	473	2	16.0978	13.7981	6.9043
	474	1	16.0969	13.7933	11.5085
	475	2	16.1098	13.7917	16.1033
	476	2	16.0901	13.7971	20.6935
	477	2	16.0989	18.3957	2.2906
	478	2	16.0981	18.4025	6.8998
	479	1	16.0918	18.3959	11.508
	480	2	16.092	18.39	16.1083
	481	2	16.1086	18.3929	20.6982
	482	2	16.1068	22.997	2.2915
	483	2	16.1059	23.0062	6.8992
	484	2	16.094	22.9934	11.5019
	485	2	16.1024	22.9905	16.0955
	486	2	16.1075	22.9942	20.6936
	487	2	20.7047	0.0093	2.3067
	488	2	20.7018	0.0022	6.908
	489	2	20.7098	0.0064	11.506
	490	2	20.7079	-0.0025	16.0985
	491	1	20.6959	-0.0047	20.6958
	492	1	20.7085	4.5958	2.3078
	493	2	20.6951	4.5908	6.8949
	494	2	20.7015	4.6018	11.4978
	495	1	20.6911	4.609	16.106
	496	2	20.7048	4.6078	20.6936
	497	1	20.6997	9.2072	2.2963
	498	2	20.7033	9.1991	6.9047
	499	1	20.7074	9.1905	11.5019
	500	2	20.7036	9.1979	16.1064
	501	2	20.6956	9.1998	20.6928
	502	2	20.7053	13.7937	2.3057
	503	1	20.6942	13.7927	6.9045
	504	1	20.6914	13.804	11.5033
	505	2	20.6934	13.7914	16.1058
	506	2	20.6916	13.7977	20.6952
	507	2	20.7033	18.3928	2.2975
	508	2	20.6967	18.3912	6.8962
	509	1	20.7069	18.3978	11.4938
	510	2	20.6931	18.4064	16.1069
	511	1	20.7047	18.3982	20.7007
	512	1	20.7027	22.9997	2.3053
	513	2	20.7099	22.9997	6.8908
	514	2	20.6996	23.003	11.4983
	515	1	20.7083	23.0003	16.1093
	516	2	20.6919	22.9991	20.6901
	517	2	0.0046	2.2901	2.309
	518	1	-0.0049	2.2997	6.8995
	519	2	-0.0002	2.3009	11.5025
	520	1	-0.0088	2.3054	16.1056
	521	2	0.0027	2.3066	20.6902
	522	2	0.0	6.9048	2.3005
	523	1	-0.0064	6.9035	6.8994
	524	1	0.0097	6.891	11.4952
	525	2	-0.0077	6.8951	16.1076
	526	2	0.0086	6.8995	20.699
	527	2	0.0009	11.4914	2.2954
	528	2	-0.0098	11.4996	6.9036
	529	2	-0.0032	11.507	11.5045
	530	1	-0.0093	11.4936	16.1021
	531	2	-0.0077	11.4904	20.7053
	532	2	-0.0074	16.092	2.3072
	533	2	-0.0082	16.1042	6.8919
	534	1	-0.0019	16.0967	11.4989
	535	2	0.0025	16.0994	16.0927
	536	2	-0.0001	16.1076	20.7056
	537	1	-0.0055	20.6987	2.2976
	538	2	0.0057	20.7092	6.9018
	539	2	-0.006	20.6932	11.4989
	540	2	-0.0004	20.7054	16.1062
	541	2	0.005	20.6911	20.7079
	542	1	4.5903	2.3022	2.2982
	543	2	4.6044	2.2943	6.9012
	544	1	4.6097	2.3004	11.5005
	545	1	4.5982	2.2999	16.0903
	546	1	4.6083	2.3012	20.7009
	547	2	4.597	6.906	2.2942
	548	2	4.5973	6.9056	6.907
	549	2	4.6064	6.9032	11.5081
	550	2	4.6049	6.8968	16.0919
	551	2	4.5983	6.9086	20.6903
	552	2	4.6068	11.4971	2.2909
	553	1	4.6083	11.4971	6.8995
	554	2	4.5953	11.4943	11.5082
	555	2	4.5939	11.5004	16.0956
	556	2	4.6028	11.504	20.6982
	557	1	4.5963	16.0949	2.2967
	558	2	4.591	16.0929	6.894
	559	2	4.5931	16.0911	11.5
	560	1	4.6017	16.1035	16.0908
	561	1	4.5952	16.1002	20.7057
	562	2	4.6	20.6928	2.2912
	563	1	4.6019	20.6948	6.909
	564	2	4.5944	20.6911	11.5024
	565	2	4.6038	20.6932	16.0926
	566	1	4.6014	20.7057	20.6941
	567	2	9.2072	2.2901	2.3061
	568	1	9.1963	2.2965	6.8927
	569	2	9.1945	2.2915	11.4916
	570	2	9.1936	2.3027	16.0916
	571	2	9.2005	2.2998	20.7088
	572	2	9.2032	6.9053	2.299
	573	1	9.2075	6.9013	6.8977
	574	2	9.1937	6.8982	11.4999
	575	2	9.2036	6.8991	16.1089
	576	2	9.202	6.9085	20.7089
	577	1	9.2072	11.4924	2.3071
	578	2	9.1907	11.5013	6.9082
	579	1	9.2015	11.5088	11.5094
	580	2	9.1964	11.5028	16.0958
	581	1	9.1993	11.5006	20.6931
	582	2	9.2002	16.1002	2.2936
	583	2	9.2044	16.0996	6.8999
	584	2	9.2005	16.0914	11.5002
	585	2	9.209	16.1031	16.0948
	586	2	9.2088	16.1072	20.6997
	587	2	9.1933	20.7004	2.291
	588	1	9.1944	20.7093	6.8946
	589	2	9.1984	20.7041	11.4927
	590	1	9.1996	20.6906	16.1089
	591	1	9.2098	20.7043	20.6946
	592	1	13.7953	2.3071	2.3
	593	1	13.8002	2.309	6.8947
	594	2	13.7934	2.2956	11.4962
	595	2	13.8071	2.2924	16.0913
	596	2	13.8095	2.3015	20.7082
	597	2	13.7918	6.8941	2.3044
	598	2	13.7995	6.8925	6.8979
	599	2	13.8081	6.8984	11.5058
	600	2	13.7938	6.9008	16.09
	601	2	13.8037	6.8988	20.6936
	602	2	13.7901	11.502	2.2937
	603	1	13.7991	11.4929	6.9071
	604	1	13.7973	11.5091	11.4968
	605	2	13.8022	11.4942	16.0976
	606	2	13.8011	11.4962	20.6913
	607	1	13.7908	16.0977	2.3067
	608	1	13.7965	16.102	6.901
	609	2	13.8065	16.1051	11.5066
	610	2	13.8065	16.0957	16.0925
	611	2	13.8082	16.0976	20.6954
	612	2	13.808	20.7056	2.306
	613	2	13.8034	20.6978	6.9016
	614	2	13.798	20.6942	11.4924
	615	2	13.7991	20.6958	16.0957
	616	2	13.802	20.6954	20.7027
	617	1	18.3949	2.2949	2.307
	618	1	18.3988	2.3075	6.8919
	619	2	18.3986	2.3027	11.5087
	620	1	18.4047	2.2952	16.0912
	621	2	18.3981	2.3088	20.7054
	622	2	18.391	6.9012	2.2904
	623	1	18.4092	6.9063	6.8949
	624	2	18.4017	6.9023	11.5076
	625	2	18.3998	6.9089	16.0912
	626	1	18.3974	6.8977	20.7059
	627	1	18.399	11.5099	2.3067
	628	2	18.3993	11.4963	6.8902
	629	2	18.4006	11.4913	11.5096
	630	1	18.4099	11.4943	16.0926
	631	1	18.3954	11.4902	20.697
	632	1	18.4029	16.1077	2.3002
	633	1	18.4012	16.0927	6.8909
	634	1	18.4086	16.0957	11.5051
	635	1	18.3947	16.0925	16.1072
	636	2	18.4096	16.0965	20.7009
	637	2	18.4027	20.7072	2.3069
	638	2	18.3908	20.7048	6.9052
	639	2	18.4055	20.6984	11.5043
	640	2	18.396	20.7097	16.1092
	641	2	18.3975	20.6969	20.7032
	642	1	22.9911	2.3032	2.3085
	643	2	23.0004	2.3096	6.8914
	644	2	23.0033	2.2908	11.5092
	645	2	22.9998	2.308	16.1045
	646	2	22.995	2.293	20.7013
	647	1	23.0006	6.9022	2.3098
	648	2	22.9921	6.894	6.9056
	649	2	23.0096	6.9076	11.5055
	650	2	23.0028	6.9033	16.1005
	651	2	23.005	6.8953	20.7037
	652	2	23.0061	11.491	2.3031
	653	1	23.0092	11.5022	6.9034
	654	1	22.9933	11.4933	11.5086
	655	2	23.0013	11.5035	16.1088
	656	2	23.0003	11.4904	20.6982
	657	2	22.9996	16.1046	2.2983
	658	1	22.9936	16.0973	6.9065
	659	2	23.0009	16.091	11.4954
	660	2	23.009	16.1075	16.1081
	661	2	22.9908	16.0984	20.7096
	662	2	22.9926	20.6964	2.3024
	663	2	23.0045	20.7086	6.906
	664	2	22.9935	20.6902	11.496
	665	2	22.9991	20.7098	16.0902
	666	2	23.0074	20.6948	20.7014

Velocities

	1	0.0	0.0	0.0
	2	0.0	0.0	0.0
	3	0.0	0.0	0.0
	4	0.0	0.0	0.0
	5	0.0	0.0	0.0
	6	0.0	0.0	0.0
	7	0.0	0.0	0.0
	8	0.0	0.0	0.0
	9	0.0	0.0	0.0
	10	0.0	0.0	0.0
	11	0.0	0.0	0.0
	12	0.0	0.0	0.0
	13	0.0	0.0	0.0
	14	0.0	0.0	0.0
	15	0.0	0.0	0.0
	16	0.0	0.0	0.0
	17	0.0	0.0	0.0
	18	0.0	0.0	0.0
	19	0.0	0.0	0.0
	20	0.0	0.0	0.0
	21	0.0	0.0	0.0
	22	0.0	0.0	0.0
	23	0.0	0.0	0.0
	24	0.0	0.0	0.0
	25	0.0	0.0	0.0
	26	0.0	0.0	0.0
	27	0.0	0.0	0.0
	28	0.0	0.0	0.0
	29	0.0	0.0	0.0
	30	0.0	0.0	0.0
	31	0.0	0.0	0.0
	32	0.0	0.0	0.0
	33	0.0	0.0	0.0
	34	0.0	0.0	0.0
	35	0.0	0.0	0.0
	36	0.0	0.0	0.0
	37	0.0	0.0	0.0
	38	0.0	0.0	0.0
	39	0.0	0.0	0.0
	40	0.0	0.0	0.0
	41	0.0	0.0	0.0
	42	0.0	0.0	0.0
	43	0.0	0.0	0.0
	44	0.0	0.0	0.0
	45	0.0	0.0	0.0
	46	0.0	0.0	0.0
	47	0.0	0.0	0.0
	48	0.0	0.0	0.0
	49	0.0	0.0	0.0
	50	0.0	0.0	0.0
	51	0.0	0.0	0.0
	52	0.0	0.0	0.0
	53	0.0	0.0	0.0
	54	0.0	0.0	0.0
	55	0.0	0.0	0.0
	56	0.0	0.0	0.0
	57	0.0	0.0	0.0
	58	0.0	0.0	0.0
	59	0.0	0.0	0.0
	60	0.0	0.0	0.0
	61	0.0	0.0	0.0
	62	0.0	0.0	0.0
	63	0.0	0.0	0.0
	64	0.0	0.0	0.0
	65	0.0	0.0	0.0
	66	0.0	0.0	0.0
	67	0.0	0.0	0.0
	68	0.0	0.0	0.0
	69	0.0	0.0	0.0
	70	0.0	0.0	0.0
	71	0.0	0.0	0.0
	72	0.0	0.0	0.0
	73	0.0	0.0	0.0
	74	0.0	0.0	0.0
	75	0.0	0.0	0.0
	76	0.0	0.0	0.0
	77	0.0	0.0	0.0
	78	0.0	0.0	0.0
	79	0.0	0.0	0.0
	80	0.0	0.0	0.0
	81	0.0	0.0	0.0
	82	0.0	0.0	0.0
	83	0.0	0.0	0.0
	84	0.0	0.0	0.0
	85	0.0	0.0	0.0
	86	0.0	0.0	0.0
	87	0.0	0.0	0.0
	88	0.0	0.0	0.0
	89	0.0	0.0	0.0
	90	0.0	0.0	0.0
	91	0.0	0.0	0.0
	92	0.0	0.0	0.0
	93	0.0	0.0	0.0
	94	0.0	0.0	0.0
	95	0.0	0.0	0.0
	96	0.0	0.0	0.0
	97	0.0	0.0	0.0
	98	0.0	0.0	0.0
	99	0.0	0.0	0.0
	100	0.0	0.0	0.0
	101	0.0	0.0	0.0
	102	0.0	0.0	0.0
	103	0.0	0.0	0.0
	104	0.0	0.0	0.0
	105	0.0	0.0	0.0
	106	0.0	0.0	0.0
	107	0.0	0.0	0.0
	108	0.0	0.0	0.0
	109	0.0	0.0	0.0
	110	0.0	0.0	0.0
	111	0.0	0.0	0.0
	112	0.0	0.0	0.0
	113	0.0	0.0	0.0
	114	0.0	0.0	0.0
	115	0.0	0.0	0.0
	116	0.0	0.0	0.0
	117	0.0	0.0	0.0
	118	0.0	0.0	0.0
	119	0.0	0.0	0.0
	120	0.0	0.0	0.0
	121	0.0	0.0	0.0
	122	0.0	0.0	0.0
	123	0.0	0.0	0.0
	124	0.0	0.0	0.0
	125	0.0	0.0	0.0
	126	0.0	0.0	0.0
	127	0.0	0.0	0.0
	128	0.0	0.0	0.0
	129	0.0	0.0	0.0
	130	0.0	0.0	0.0
	131	0.0	0.0	0.0
	132	0.0	0.0	0.0
	133	0.0	0.0	0.0
	134	0.0	0.0	0.0
	135	0.0	0.0	0.0
	136	0.0	0.0	0.0
	137	0.0	0.0	0.0
	138	0.0	0.0	0.0
	139	0.0	0.0	0.0
	140	0.0	0.0	0.0
	141	0.0	0.0	0.0
	142	0.0	0.0	0.0
	143	0.0	0.0	0.0
	144	0.0	0.0	0.0
	145	0.0	0.0	0.0
	146	0.0	0.0	0.0
	147	0.0	0.0	0.0
	148	0.0	0.0	0.0
	149	0.0	0.0	0.0
	150	0.0	0.0	0.0
	151	0.0	0.0	0.0
	152	0.0	0.0	0.0
	153	0.0	0.0	0.0
	154	0.0	0.0	0.0
	155	0.0	0.0	0.0
	156	0.0	0.0	0.0
	157	0.0	0.0	0.0
	158	0.0	0.0	0.0
	159	0.0	0.0	0.0
	160	0.0	0.0	0.0
	161	0.0	0.0	0.0
	162	0.0	0.0	0.0
	163	0.0	0.0	0.0
	164	0.0	0.0	0.0
	165	0.0	0.0	0.0
	166	0.0	0.0	0.0
	167	0.0	0.0	0.0
	168	0.0	0.0	0.0
	169	0.0	0.0	0.0
	170	0.0	0.0	0.0
	171	0.0	0.0	0.0
	172	0.0	0.0	0.0
	173	0.0	0.0	0.0
	174	0.0	0.0	0.0
	175	0.0	0.0	0.0
	176	0.0	0.0	0.0
	177	0.0	0.0	0.0
	178	0.0	0.0	0.0
	179	0.0	0.0	0.0
	180	0.0	0.0	0.0
	181	0.0	0.0	0.0
	182	0.0	0.0	0.0
	183	0.0	0.0	0.0
	184	0.0	0.0	0.0
	185	0.0	0.0	0.0
	186	0.0	0.0	0.0
	187	0.0	0.0	0.0
	188	0.0	0.0	0.0
	189	0.0	0.0	0.0
	190	0.0	0.0	0.0
	191	0.0	0.0	0.0
	192	0.0	0.0	0.0
	193	0.0	0.0	0.0
	194	0.0	0.0	0.0
	195	0.0	0.0	0.0
	196	0.0	0.0	0.0
	197	0.0	0.0	0.0
	198	0.0	0.0	0.0
	199	0.0	0.0	0.0
	200	0.0	0.0	0.0
	201	0.0	0.0	0.0
	202	0.0	0.0	0.0
	203	0.0	0.0	0.0
	204	0.0	0.0	0.0
	205	0.0	0.0	0.0
	206	0.0	0.0	0.0
	207	0.0	0.0	0.0
	208	0.0	0.0	0.0
	209	0.0	0.0	0.0
	210	0.0	0.0	0.0
	211	0.0	0.0	0.0
	212	0.0	0.0	0.0
	213	0.0	0.0	0.0
	214	0.0	0.0	0.0
	215	0.0	0.0	0.0
	216	0.0	0.0	0.0
	217	0.0	0.0	0.0
	218	0.0	0.0	0.0
	219	0.0	0.0	0.0
	220	0.0	0.0	0.0
	221	0.0	0.0	0.0
	222	0.0	0.0	0.0
	223	0.0	0.0	0.0
	224	0.0	0.0	0.0
	225	0.0	0.0	0.0
	226	0.0	0.0	0.0
	227	0.0	0.0	0.0
	228	0.0	0.0	0.0
	229	0.0	0.0	0.0
	230	0.0	0.0	0.0
	231	0.0	0.0	0.0
	232	0.0	0.0	0.0
	233	0.0	0.0	0.0
	234	0.0	0.0	0.0
	235	0.0	0.0	0.0
	236	0.0	0.0	0.0
	237	0.0	0.0	0.0
	238	0.0	0.0	0.0
	239	0.0	0.0	0.0
	240	0.0	0.0	0.0
	241	0.0	0.0	0.0
	242	0.0	0.0	0.0
	243	0.0	0.0	0.0
	244	0.0	0.0	0.0
	245	0.0	0.0	0.0
	246	0.0	0.0	0.0
	247	0.0	0.0	0.0
	248	0.0	0.0	0.0
	249	0.0	0.0	0.0
	250	0.0	0.0	0.0
	251	0.0	0.0	0.0
	252	0.0	0.0	0.0
	253	0.0	0.0	0.0
	254	0.0	0.0	0.0
	255	0.0	0.0	0.0
	256	0.0	0.0	0.0
	257	0.0	0.0	0.0
	258	0.0	0.0	0.0
	259	0.0	0.0	0.0
	260	0.0	0.0	0.0
	261	0.0	0.0	0.0
	262	0.0	0.0	0.0
	263	0.0	0.0	0.0
	264	0.0	0.0	0.0
	265	0.0	0.0	0.0
	266	0.0	0.0	0.0
	267	0.0	0.0	0.0
	268	0.0	0.0	0.0
	269	0.0	0.0	0.0
	270	0.0	0.0	0.0
	271	0.0	0.0	0.0
	272	0.0	0.0	0.0
	273	0.0	0.0	0.0
	274	0.0	0.0	0.0
	275	0.0	0.0	0.0
	276	0.0	0.0	0.0
	277	0.0	0.0	0.0
	278	0.0	0.0	0.0
	279	0.0	0.0	0.0
	280	0.0	0.0	0.0
	281	0.0	0.0	0.0
	282	0.0	0.0	0.0
	283	0.0	0.0	0.0
	284	0.0	0.0	0.0
	285	0.0	0.0	0.0
	286	0.0	0.0	0.0
	287	0.0	0.0	0.0
	288	0.0	0.0	0.0
	289	0.0	0.0	0.0
	290	0.0	0.0	0.0
	291	0.0	0.0	0.0
	292	0.0	0.0	0.0
	293	0.0	0.0	0.0
	294	0.0	0.0	0.0
	295	0.0	0.0	0.0
	296	0.0	0.0	0.0
	297	0.0	0.0	0.0
	298	0.0	0.0	0.0
	299	0.0	0.0	0.0
	300	0.0	0.0	0.0
	301	0.0	0.0	0.0
	302	0.0	0.0	0.0
	303	0.0	0.0	0.0
	304	0.0	0.0	0.0
	305	0.0	0.0	0.0
	306	0.0	0.0	0.0
	307	0.0	0.0	0.0
	308	0.0	0.0	0.0
	309	0.0	0.0	0.0
	310	0.0	0.0	0.0
	311	0.0	0.0	0.0
	312	0.0	0.0	0.0
	313	0.0	0.0	0.0
	314	0.0	0.0	0.0
	315	0.0	0.0	0.0
	316	0.0	0.0	0.0
	317	0.0	0.0	0.0
	318	0.0	0.0	0.0
	319	0.0	0.0	0.0
	320	0.0	0.0	0.0
	321	0.0	0.0	0.0
	322	0.0	0.0	0.0
	323	0.0	0.0	0.0
	324	0.0	0.0	0.0
	325	0.0	0.0	0.0
	326	0.0	0.0	0.0
	327	0.0	0.0	0.0
	328	0.0	0.0	0.0
	329	0.0	0.0	0.0
	330	0.0	0.0	0.0
	331	0.0	0.0	0.0
	332	0.0	0.0	0.0
	333	0.0	0.0	0.0
	334	0.0	0.0	0.0
	335	0.0	0.0	0.0
	336	0.0	0.0	0.0
	337	0.0	0.0	0.0
	338	0.0	0.0	0.0
	339	0.0	0.0	0.0
	340	0.0	0.0	0.0
	341	0.0	0.0	0.0
	342	0.0	0.0	0.0
	343	0.0	0.0	0.0
	344	0.0	0.0	0.0
	345	0.0	0.0	0.0
	346	0.0	0.0	0.0
	347	0.0	0.0	0.0
	348	0.0	0.0	0.0
	349	0.0	0.0	0.0
	350	0.0	0.0	0.0
	351	0.0	0.0	0.0
	352	0.0	0.0	0.0
	353	0.0	0.0	0.0
	354	0.0	0.0	0.0
	355	0.0	0.0	0.0
	356	0.0	0.0	0.0
	357	0.0	0.0	0.0
	358	0.0	0.0	0.0
	359	0.0	0.0	0.0
	360	0.0	0.0	0.0
	361	0.0	0.0	0.0
	362	0.0	0.0	0.0
	363	0.0	0.0	0.0
	364	0.0	0.0	0.0
	365	0.0	0.0	0.0
	366	0.0	0.0	0.0
	367	0.0	0.0	0.0
	368	0.0	0.0	0.0
	369	0.0	0.0	0.0
	370	0.0	0.0	0.0
	371	0.0	0.0	0.0
	372	0.0	0.0	0.0
	373	0.0	0.0	0.0
	374	0.0	0.0	0.0
	375	0.0	0.0	0.0
	376	0.0	0.0	0.0
	377	0.0	0.0	0.0
	378	0.0	0.0	0.0
	379	0.0	0.0	0.0
	380	0.0	0.0	0.0
	381	0.0	0.0	0.0
	382	0.0	0.0	0.0
	383	0.0	0.0	0.0
	384	0.0	0.0	0.0
	385	0.0	0.0	0.0
	386	0.0	0.0	0.0
	387	0.0	0.0	0.0
	388	0.0	0.0	0.0
	389	0.0	0.0	0.0
	390	0.0	0.0	0.0
	391	0.0	0.0	0.0
	392	0.0	0.0	0.0
	393	0.0	0.0	0.0
	394	0.0	0.0	0.0
	395	0.0	0.0	0.0
	396	0.0	0.0	0.0
	397	0.0	0.0	0.0
	398	0.0	0.0	0.0
	399	0.0	0.0	0.0
	400	0.0	0.0	0.0
	401	0.0	0.0	0.0
	402	0.0	0.0	0.0
	403	0.0	0.0	0.0
	404	0.0	0.0	0.0
	405	0.0	0.0	0.0
	406	0.0	0.0	0.0
	407	0.0	0.0	0.0
	408	0.0	0.0	0.0
	409	0.0	0.0	0.0
	410	0.0	0.0	0.0
	411	0.0	0.0	0.0
	412	0.0	0.0	0.0
	413	0.0	0.0	0.0
	414	0.0	0.0	0.0
	415	0.0	0.0	0.0
	416	0.0	0.0	0.0
	417	0.0	0.0	0.0
	418	0.0	0.0	0.0
	419	0.0	0.0	0.0
	420	0.0	0.0	0.0
	421	0.0	0.0	0.0
	422	0.0	0.0	0.0
	423	0.0	0.0	0.0
	424	0.0	0.0	0.0
	425	0.0	0.0	0.0
	426	0.0	0.0	0.0
	427	0.0	0.0	0.0
	428	0.0	0.0	0.0
	429	0.0	0.0	0.0
	430	0.0	0.0	0.0
	431	0.0	0.0	0.0
	432	0.0	0.0	0.0
	433	0.0	0.0	0.0
	434	0.0	0.0	0.0
	435	0.0	0.0	0.0
	436	0.0	0.0	0.0
	437	0.0	0.0	0.0
	438	0.0	0.0	0.0
	439	0.0	0.0	0.0
	440	0.0	0.0	0.0
	441	0.0	0.0	0.0
	442	0.0	0.0	0.0
	443	0.0	0.0	0.0
	444	0.0	0.0	0.0
	445	0.0	0.0	0.0
	446	0.0	0.0	0.0
	447	0.0	0.0	0.0
	448	0.0	0.0	0.0
	449	0.0	0.0	0.0
	450	0.0	0.0	0.0
	451	0.0	0.0	0.0
	452	0.0	0.0	0.0
	453	0.0	0.0	0.0
	454	0.0	0.0	0.0
	455	0.0	0.0	0.0
	456	0.0	0.0	0.0
	457	0.0	0.0	0.0
	458	0.0	0.0	0.0
	459	0.0	0.0	0.0
	460	0.0	0.0	0.0
	461	0.0	0.0	0.0
	462	0.0	0.0	0.0
	463	0.0	0.0	0.0
	464	0.0	0.0	0.0
	465	0.0	0.0	0.0
	466	0.0	0.0	0.0
	467	0.0	0.0	0.0
	468	0.0	0.0	0.0
	469	0.0	0.0	0.0
	470	0.0	0.0	0.0
	471	0.0	0.0	0.0
	472	0.0	0.0	0.0
	473	0.0	0.0	0.0
	474	0.0	0.0	0.0
	475	0.0	0.0	0.0
	476	0.0	0.0	0.0
	477	0.0	0.0	0.0
	478	0.0	0.0	0.0
	479	0.0	0.0	0.0
	480	0.0	0.0	0.0
	481	0.0	0.0	0.0
	482	0.0	0.0	0.0
	483	0.0	0.0	0.0
	484	0.0	0.0	0.0
	485	0.0	0.0	0.0
	486	0.0	0.0	0.0
	487	0.0	0.0	0.0
	488	0.0	0.0	0.0
	489	0.0	0.0	0.0
	490	0.0	0.0	0.0
	491	0.0	0.0	0.0
	492	0.0	0.0	0.0
	493	0.0	0.0	0.0
	494	0.0	0.0	0.0
	495	0.0	0.0	0.0
	496	0.0	0.0	0.0
	497	0.0	0.0	0.0
	498	0.0	0.0	0.0
	499	0.0	0.0	0.0
	500	0.0	0.0	0.0
	501	0.0	0.0	0.0
	502	0.0	0.0	0.0
	503	0.0	0.0	0.0
	504	0.0	0.0	0.0
	505	0.0	0.0	0.0
	506	0.0	0.0	0.0
	507	0.0	0.0	0.0
	508	0.0	0.0	0.0
	509	0.0	0.0	0.0
	510	0.0	0.0	0.0
	511	0.0	0.0	0.0
	512	0.0	0.0	0.0
	513	0.0	0.0	0.0
	514	0.0	0.0	0.0
	515	0.0	0.0	0.0
	516	0.0	0.0	0.0
	517	0.0	0.0	0.0
	518	0.0	0.0	0.0
	519	0.0	0.0	0.0
	520	0.0	0.0	0.0
	521	0.0	0.0	0.0
	522	0.0	0.0	0.0
	523	0.0	0.0	0.0
	524	0.0	0.0	0.0
	525	0.0	0.0	0.0
	526	0.0	0.0	0.0
	527	0.0	0.0	0.0
	528	0.0	0.0	0.0
	529	0.0	0.0	0.0
	530	0.0	0.0	0.0
	531	0.0	0.0	0.0
	532	0.0	0.0	0.0
	533	0.0	0.0	0.0
	534	0.0	0.0	0.0
	535	0.0	0.0	0.0
	536	0.0	0.0	0.0
	537	0.0	0.0	0.0
	538	0.0	0.0	0.0
	539	0.0	0.0	0.0
	540	0.0	0.0	0.0
	541	0.0	0.0	0.0
	542	0.0	0.0	0.0
	543	0.0	0.0	0.0
	544	0.0	0.0	0.0
	545	0.0	0.0	0.0
	546	0.0	0.0	0.0
	547	0.0	0.0	0.0
	548	0.0	0.0	0.0
	549	0.0	0.0	0.0
	550	0.0	0.0	0.0
	551	0.0	0.0	0.0
	552	0.0	0.0	0.0
	553	0.0	0.0	0.0
	554	0.0	0.0	0.0
	555	0.0	0.0	0.0
	556	0.0	0.0	0.0
	557	0.0	0.0	0.0
	558	0.0	0.0	0.0
	559	0.0	0.0	0.0
	560	0.0	0.0	0.0
	561	0.0	0.0	0.0
	562	0.0	0.0	0.0
	563	0.0	0.0	0.0
	564	0.0	0.0	0.0
	565	0.0	0.0	0.0
	566	0.0	0.0	0.0
	567	0.0	0.0	0.0
	568	0.0	0.0	0.0
	569	0.0	0.0	0.0
	570	0.0	0.0	0.0
	571	0.0	0.0	0.0
	572	0.0	0.0	0.0
	573	0.0	0.0	0.0
	574	0.0	0.0	0.0
	575	0.0	0.0	0.0
	576	0.0	0.0	0.0
	577	0.0	0.0	0.0
	578	0.0	0.0	0.0
	579	0.0	0.0	0.0
	580	0.0	0.0	0.0
	581	0.0	0.0	0.0
	582	0.0	0.0	0.0
	583	0.0	0.0	0.0
	584	0.0	0.0	0.0
	585	0.0	0.0	0.0
	586	0.0	0.0	0.0
	587	0.0	0.0	0.0
	588	0.0	0.0	0.0
	589	0.0	0.0	0.0
	590	0.0	0.0	0.0
	591	0.0	0.0	0.0
	592	0.0	0.0	0.0
	593	0.0	0.0	0.0
	594	0.0	0.0	0.0
	595	0.0	0.0	0.0
	596	0.0	0.0	0.0
	597	0.0	0.0	0.0
	598	0.0	0.0	0.0
	599	0.0	0.0	0.0
	600	0.0	0.0	0.0
	601	0.0	0.0	0.0
	602	0.0	0.0	0.0
	603	0.0	0.0	0.0
	604	0.0	0.0	0.0
	605	0.0	0.0	0.0
	606	0.0	0.0	0.0
	607	0.0	0.0	0.0
	608	0.0	0.0	0.0
	609	0.0	0.0	0.0
	610	0.0	0.0	0.0