Nickle Copper Simulation

7813 	atoms
0 	bonds
0 	angles
0 	dihedrals
0 	impropers

2	atom types
0	bond types
0	angle types
0	dihedral types
0	improper types

-0.02	55.22	xlo xhi
-0.02	55.22	ylo yhi
-0.02	55.22	zlo zhi

Atoms

	1	1	0.006	-0.0006	-0.0066
	2	2	0.0064	-0.0045	4.6099
	3	2	-0.0084	-0.0039	9.1923
	4	2	0.0017	0.0019	13.8045
	5	1	0.0001	-0.0014	18.3996
	6	1	0.0009	0.0037	23.0039
	7	2	0.0032	-0.0067	27.596
	8	2	-0.004	0.0043	32.2065
	9	2	-0.0031	-0.0099	36.8018
	10	1	-0.0097	-0.0035	41.3902
	11	2	-0.003	0.0083	45.998
	12	1	-0.0095	-0.0061	50.6053
	13	1	-0.0046	0.0065	55.2036
	14	2	0.0065	4.6031	-0.0055
	15	2	0.0091	4.6051	4.5992
	16	1	-0.0017	4.6094	9.1941
	17	2	-0.006	4.5936	13.8034
	18	1	0.0079	4.5987	18.4047
	19	2	0.0094	4.6033	23.0064
	20	2	0.0022	4.5912	27.6029
	21	2	0.0044	4.6076	32.1918
	22	2	0.0052	4.604	36.8012
	23	2	0.0097	4.5986	41.3964
	24	2	0.0014	4.5974	46.0072
	25	2	0.0043	4.6094	50.6083
	26	1	0.0075	4.5934	55.203
	27	2	-0.0029	9.205	-0.0014
	28	2	0.0086	9.2025	4.5967
	29	1	-0.0031	9.1907	9.2007
	30	1	0.0004	9.205	13.8007
	31	2	0.0047	9.208	18.4021
	32	2	0.0088	9.1963	23.0031
	33	2	0.0032	9.2036	27.6093
	34	2	-0.0027	9.2013	32.1905
	35	2	0.0076	9.2058	36.7929
	36	1	0.009	9.1964	41.3911
	37	2	-0.0096	9.1983	45.9983
	38	2	-0.0037	9.1921	50.6092
	39	2	-0.0053	9.2092	55.192
	40	2	0.0056	13.8095	-0.0096
	41	2	-0.0054	13.7946	4.598
	42	1	-0.0024	13.7968	9.208
	43	1	0.0057	13.8095	13.7962
	44	2	0.0094	13.8059	18.4042
	45	1	0.0008	13.8099	22.991
	46	2	0.0062	13.7928	27.607
	47	2	-0.0053	13.7906	32.2038
	48	2	0.0038	13.7939	36.8039
	49	1	-0.0064	13.809	41.3969
	50	1	0.0032	13.8068	45.9919
	51	2	-0.0019	13.795	50.6081
	52	2	-0.0049	13.7927	55.2
	53	2	0.0078	18.3975	0.0033
	54	2	-0.0096	18.4032	4.5994
	55	2	-0.0086	18.3987	9.1983
	56	2	-0.0029	18.4066	13.7998
	57	1	-0.0027	18.4082	18.391
	58	2	-0.001	18.3998	23.0058
	59	1	-0.0046	18.4086	27.5974
	60	2	-0.0089	18.3968	32.1996
	61	2	0.0072	18.4082	36.7959
	62	2	0.0003	18.4006	41.4012
	63	1	0.0023	18.4041	46.0022
	64	1	-0.0	18.3981	50.597
	65	1	0.0007	18.406	55.2077
	66	2	0.0002	23.0098	-0.0008
	67	1	0.0063	22.9962	4.5931
	68	2	-0.01	22.9989	9.1971
	69	2	0.01	22.9933	13.8017
	70	1	0.0035	23.0027	18.3974
	71	1	0.0079	23.007	22.9999
	72	2	-0.0097	23.0045	27.6017
	73	2	-0.0004	22.9937	32.2073
	74	2	0.0046	22.9969	36.8051
	75	2	-0.0089	22.996	41.3917
	76	1	0.0076	22.997	45.9998
	77	2	-0.004	22.9946	50.6023
	78	1	-0.0097	23.0025	55.1923
	79	1	0.0058	27.5979	0.0047
	80	2	0.0067	27.5915	4.5969
	81	2	-0.0091	27.604	9.201
	82	2	-0.0068	27.598	13.805
	83	2	0.0045	27.6093	18.4034
	84	1	0.008	27.5932	23.004
	85	2	-0.0072	27.5991	27.6082
	86	2	0.0051	27.6057	32.1987
	87	2	-0.0047	27.6078	36.793
	88	2	-0.0044	27.6072	41.407
	89	1	0.0055	27.5924	45.997
	90	2	-0.0094	27.595	50.6063
	91	1	0.0073	27.5907	55.1983
	92	1	0.0076	32.1987	-0.0006
	93	2	-0.0028	32.1936	4.5929
	94	2	0.0076	32.1952	9.2047
	95	2	0.0097	32.1986	13.8078
	96	1	-0.0045	32.19	18.4098
	97	2	0.0024	32.2067	23.0011
	98	2	0.0077	32.1994	27.6016
	99	2	-0.0097	32.2081	32.1952
	100	2	0.0052	32.1915	36.7954
	101	2	-0.0043	32.2078	41.3931
	102	2	0.0046	32.2015	46.0056
	103	1	0.0069	32.2032	50.5921
	104	2	0.0021	32.1989	55.1936
	105	2	0.0037	36.793	0.0091
	106	1	0.0032	36.8034	4.5946
	107	2	-0.006	36.791	9.2074
	108	1	0.0004	36.7916	13.8041
	109	2	-0.0062	36.7952	18.407
	110	1	0.0095	36.7992	23.0024
	111	2	0.0049	36.7935	27.6081
	112	1	-0.0057	36.8004	32.1922
	113	1	-0.0034	36.7928	36.7958
	114	2	0.0072	36.8067	41.3946
	115	1	0.0078	36.7949	45.9993
	116	2	0.0015	36.7944	50.5964
	117	2	0.0087	36.8063	55.1989
	118	2	0.003	41.4065	0.0013
	119	1	-0.0066	41.4035	4.6022
	120	1	0.0003	41.4018	9.209
	121	2	0.0088	41.4071	13.8005
	122	2	-0.0095	41.4088	18.396
	123	2	0.0069	41.3935	22.9957
	124	1	0.0092	41.4085	27.5951
	125	2	-0.0015	41.3967	32.1916
	126	2	0.0076	41.4069	36.8031
	127	2	0.0008	41.4009	41.4083
	128	2	0.004	41.4017	46.0053
	129	1	-0.005	41.4069	50.6039
	130	1	0.0096	41.4059	55.1943
	131	2	-0.0059	46.0019	-0.0041
	132	2	-0.0058	46.0067	4.6026
	133	1	0.0094	45.9948	9.2009
	134	1	-0.0081	45.9964	13.7995
	135	2	-0.0078	45.9966	18.4075
	136	2	-0.0069	46.0039	22.9996
	137	1	0.002	46.0071	27.6099
	138	2	0.0093	45.9999	32.1925
	139	2	-0.0072	45.9909	36.7931
	140	2	-0.0085	46.0094	41.394
	141	2	-0.0098	46.009	45.9923
	142	2	-0.0031	45.9957	50.5968
	143	2	-0.0055	46.008	55.2092
	144	2	-0.0048	50.6098	0.0023
	145	1	-0.0005	50.5933	4.6077
	146	2	0.0067	50.6057	9.1976
	147	1	-0.0054	50.5929	13.7975
	148	2	0.0002	50.6007	18.3983
	149	2	0.0043	50.6025	23.0034
	150	2	-0.0077	50.5948	27.5933
	151	2	0.0051	50.5907	32.2011
	152	2	-0.0074	50.6038	36.8016
	153	2	-0.0035	50.5946	41.3923
	154	2	-0.0098	50.6004	46.0086
	155	1	0.0097	50.5935	50.6034
	156	2	0.0011	50.6045	55.2002
	157	2	-0.0006	55.2002	0.0007
	158	1	-0.0036	55.1926	4.6073
	159	2	-0.0089	55.2084	9.2098
	160	2	0.0046	55.1914	13.805
	161	1	0.0088	55.207	18.3972
	162	1	0.0047	55.1916	22.9932
	163	2	-0.0003	55.199	27.6076
	164	2	-0.0083	55.2029	32.2099
	165	2	-0.0059	55.2027	36.8038
	166	2	-0.0015	55.1985	41.4016
	167	2	0.0012	55.2029	46.0077
	168	1	-0.0097	55.1957	50.6059
	169	2	0.0055	55.2055	55.2064
	170	2	4.5972	-0.0082	-0.007
	171	2	4.5946	0.0014	4.6089
	172	1	4.6029	0.0037	9.203
	173	2	4.609	-0.0063	13.8039
	174	2	4.6031	0.0061	18.4063
	175	1	4.6051	-0.0071	22.9981
	176	2	4.6034	0.0061	27.607
	177	1	4.6092	-0.0052	32.1904
	178	1	4.6016	0.0064	36.8035
	179	2	4.6047	0.0027	41.4058
	180	1	4.5999	-0.0017	46.0016
	181	1	4.5968	-0.0002	50.5984
	182	2	4.5924	-0.0084	55.1975
	183	1	4.6048	4.6029	0.0021
	184	2	4.5944	4.597	4.6031
	185	2	4.5927	4.6031	9.1978
	186	2	4.5947	4.6097	13.8026
	187	1	4.593	4.6047	18.3903
	188	1	4.5985	4.6041	22.9997
	189	1	4.6097	4.5984	27.5979
	190	1	4.5944	4.5918	32.2021
	191	2	4.5918	4.5967	36.7989
	192	1	4.6051	4.5924	41.4068
	193	1	4.6072	4.5921	45.9959
	194	2	4.6055	4.6023	50.6055
	195	1	4.5934	4.592	55.1981
	196	2	4.5947	9.2018	0.009
	197	2	4.6049	9.198	4.6013
	198	2	4.6049	9.2034	9.2076
	199	2	4.5986	9.2093	13.8008
	200	2	4.6003	9.1934	18.3917
	201	1	4.6076	9.2028	23.008
	202	2	4.6079	9.2079	27.597
	203	1	4.608	9.2041	32.201
	204	2	4.5989	9.1947	36.8068
	205	2	4.6091	9.1943	41.4014
	206	1	4.6005	9.1949	46.0078
	207	2	4.5981	9.2014	50.5971
	208	2	4.6045	9.2033	55.1953
	209	2	4.5942	13.7938	0.0049
	210	2	4.6014	13.7984	4.6088
	211	2	4.6003	13.8012	9.2046
	212	1	4.6032	13.8054	13.7975
	213	2	4.5952	13.8082	18.3969
	214	1	4.5918	13.8046	23.003
	215	2	4.6016	13.7975	27.6033
	216	2	4.6031	13.7963	32.1974
	217	2	4.6078	13.7909	36.8049
	218	2	4.5952	13.7963	41.3919
	219	2	4.5995	13.8032	46.0072
	220	2	4.602	13.8074	50.6014
	221	2	4.6057	13.8014	55.2057
	222	1	4.5933	18.3926	-0.0087
	223	2	4.6084	18.4031	4.6066
	224	2	4.5954	18.4054	9.1966
	225	2	4.5905	18.3939	13.7926
	226	2	4.5905	18.3965	18.4082
	227	2	4.5967	18.4063	22.9992
	228	2	4.5922	18.4066	27.605
	229	2	4.6094	18.406	32.2055
	230	2	4.6002	18.397	36.7987
	231	2	4.6028	18.4039	41.3992
	232	2	4.5922	18.4023	45.9925
	233	1	4.594	18.3912	50.5936
	234	2	4.5981	18.4033	55.196
	235	1	4.6044	23.0085	0.0082
	236	2	4.6025	22.9912	4.6068
	237	2	4.5964	22.9914	9.2036
	238	2	4.6095	23.0073	13.8091
	239	1	4.6015	22.9937	18.3927
	240	1	4.6092	23.0032	22.9973
	241	1	4.6029	23.0021	27.606
	242	1	4.6098	23.0087	32.1992
	243	1	4.5995	23.0012	36.7992
	244	2	4.5915	22.9958	41.3998
	245	2	4.6046	22.9932	45.9948
	246	2	4.6022	22.9914	50.5962
	247	1	4.5946	23.0002	55.1957
	248	2	4.6071	27.5997	-0.0016
	249	2	4.6022	27.6032	4.5977
	250	1	4.5978	27.6089	9.194
	251	2	4.6053	27.5961	13.798
	252	2	4.6052	27.594	18.3912
	253	2	4.5963	27.6008	23.005
	254	2	4.6028	27.6035	27.5954
	255	2	4.5931	27.6037	32.2005
	256	2	4.5939	27.5969	36.8056
	257	1	4.6012	27.592	41.4095
	258	2	4.5987	27.5915	46.0017
	259	1	4.6035	27.5904	50.5904
	260	2	4.6069	27.596	55.2034
	261	2	4.6019	32.2063	0.0015
	262	2	4.5972	32.2044	4.6006
	263	1	4.606	32.2089	9.1988
	264	2	4.6056	32.1962	13.8048
	265	1	4.6073	32.1908	18.4072
	266	2	4.5935	32.1962	22.9954
	267	2	4.5991	32.1903	27.6006
	268	2	4.5959	32.1956	32.1979
	269	2	4.6072	32.2027	36.8025
	270	2	4.6054	32.2018	41.4094
	271	2	4.5932	32.2061	46.0049
	272	2	4.5984	32.2	50.6017
	273	2	4.5964	32.2077	55.199
	274	1	4.5905	36.804	0.0014
	275	2	4.6002	36.8039	4.5971
	276	2	4.6038	36.8067	9.1946
	277	1	4.5973	36.7993	13.8023
	278	1	4.6014	36.7995	18.3966
	279	2	4.5994	36.801	22.9907
	280	1	4.59	36.7947	27.5922
	281	1	4.6045	36.7924	32.2041
	282	2	4.6029	36.7944	36.804
	283	2	4.6092	36.794	41.3985
	284	2	4.6011	36.7914	46.0073
	285	2	4.6072	36.8027	50.5908
	286	2	4.59	36.7946	55.1926
	287	2	4.5963	41.4033	0.0052
	288	2	4.6055	41.4068	4.601
	289	1	4.5942	41.4012	9.2052
	290	2	4.609	41.4052	13.7913
	291	2	4.6005	41.4095	18.3993
	292	2	4.5918	41.4049	22.995
	293	2	4.6	41.4054	27.6029
	294	2	4.6038	41.4069	32.2049
	295	2	4.6056	41.4094	36.7923
	296	2	4.6061	41.4095	41.4018
	297	2	4.5941	41.3921	46.0028
	298	2	4.6072	41.4	50.6001
	299	2	4.5951	41.3902	55.1944
	300	2	4.5913	46.0025	0.0096
	301	2	4.601	45.9939	4.6052
	302	1	4.6087	46.0087	9.2031
	303	2	4.6049	45.9947	13.8036
	304	2	4.608	46.0033	18.4095
	305	1	4.5929	45.9979	22.9956
	306	2	4.5953	46.0031	27.5984
	307	2	4.6016	46.0065	32.1987
	308	2	4.5928	45.9969	36.7912
	309	1	4.5919	45.9948	41.4019
	310	2	4.6027	46.0	46.007
	311	2	4.5977	45.9928	50.5981
	312	2	4.5911	46.0022	55.1988
	313	2	4.6078	50.6018	0.0054
	314	2	4.605	50.591	4.5916
	315	1	4.5964	50.5908	9.1923
	316	2	4.5905	50.5947	13.803
	317	1	4.5933	50.6079	18.3977
	318	2	4.5919	50.5991	22.9933
	319	1	4.6023	50.6043	27.5961
	320	2	4.6034	50.6092	32.1985
	321	2	4.5953	50.5971	36.7958
	322	1	4.6092	50.5916	41.3973
	323	2	4.6085	50.5903	45.9986
	324	2	4.6034	50.5978	50.6021
	325	2	4.6098	50.5902	55.2034
	326	2	4.6048	55.1947	0.0025
	327	2	4.5989	55.2034	4.604
	328	2	4.6073	55.2072	9.1987
	329	2	4.6066	55.2002	13.7902
	330	2	4.5944	55.1977	18.4085
	331	2	4.5945	55.2032	23.0085
	332	2	4.5943	55.2077	27.6028
	333	1	4.5981	55.1961	32.1914
	334	2	4.606	55.2081	36.8002
	335	2	4.5922	55.1917	41.4081
	336	1	4.6053	55.2029	46.0064
	337	2	4.6058	55.2022	50.6052
	338	1	4.6014	55.2027	55.1908
	339	2	9.2043	0.0097	0.0027
	340	2	9.1901	0.0011	4.603
	341	1	9.2018	-0.0009	9.1992
	342	2	9.1932	-0.0054	13.8067
	343	2	9.1926	0.0026	18.4043
	344	2	9.201	-0.008	23.003
	345	1	9.1989	-0.0083	27.6053
	346	2	9.2051	0.0036	32.1929
	347	2	9.2093	0.008	36.7973
	348	1	9.2064	0.0001	41.3984
	349	2	9.2005	-0.0079	45.9925
	350	2	9.1902	0.0006	50.5976
	351	2	9.2039	0.0091	55.2068
	352	1	9.2052	4.6013	0.0031
	353	2	9.2	4.5926	4.6087
	354	1	9.1904	4.6088	9.1995
	355	2	9.1916	4.6082	13.7906
	356	2	9.2078	4.5936	18.3983
	357	1	9.1989	4.6062	22.9908
	358	1	9.2049	4.6099	27.6038
	359	1	9.1974	4.6002	32.2013
	360	1	9.2052	4.607	36.8058
	361	2	9.1958	4.6074	41.404
	362	2	9.2078	4.6086	46.0013
	363	1	9.1969	4.6012	50.6
	364	2	9.1902	4.6071	55.2097
	365	1	9.2032	9.1937	-0.0054
	366	2	9.1965	9.2006	4.6065
	367	1	9.2032	9.1958	9.1995
	368	2	9.1994	9.191	13.8072
	369	2	9.1996	9.199	18.4021
	370	1	9.1927	9.2074	22.9958
	371	2	9.2083	9.2074	27.5938
	372	2	9.1927	9.2041	32.1942
	373	2	9.2011	9.2064	36.8055
	374	2	9.2004	9.2056	41.404
	375	2	9.2072	9.2099	46.0043
	376	2	9.2069	9.2019	50.591
	377	2	9.1998	9.1935	55.1962
	378	2	9.197	13.7993	-0.0034
	379	2	9.1981	13.8003	4.604
	380	1	9.1936	13.7924	9.2024
	381	2	9.2059	13.7902	13.7918
	382	2	9.1971	13.8026	18.3986
	383	1	9.2006	13.7904	23.0003
	384	2	9.1945	13.8095	27.5955
	385	2	9.1984	13.8039	32.2003
	386	2	9.203	13.8029	36.801
	387	2	9.1918	13.7941	41.3912
	388	2	9.1971	13.8089	45.9975
	389	2	9.198	13.7974	50.6011
	390	1	9.2037	13.8011	55.1964
	391	2	9.2061	18.4008	0.0033
	392	2	9.2021	18.3914	4.596
	393	1	9.1982	18.4062	9.1969
	394	2	9.1941	18.3949	13.8003
	395	2	9.1948	18.4007	18.3984
	396	2	9.1999	18.4	22.9957
	397	1	9.1982	18.4044	27.5964
	398	2	9.2002	18.397	32.2006
	399	2	9.197	18.4061	36.7935
	400	2	9.1976	18.4085	41.4077
	401	2	9.191	18.4087	46.0085
	402	1	9.1922	18.4034	50.5983
	403	1	9.1926	18.4019	55.1978
	404	2	9.2007	23.0082	0.0028
	405	1	9.2091	22.9994	4.6003
	406	2	9.2044	23.0048	9.1918
	407	1	9.2072	23.0056	13.7912
	408	2	9.1976	22.9928	18.3969
	409	2	9.21	23.0088	23.0016
	410	2	9.1937	22.9932	27.5958
	411	2	9.1935	22.9986	32.2016
	412	2	9.2016	23.0025	36.8027
	413	2	9.2069	23.0089	41.4008
	414	2	9.192	22.9953	46.0018
	415	2	9.1909	22.9929	50.6054
	416	2	9.2056	22.9964	55.1913
	417	2	9.1923	27.5919	-0.0099
	418	2	9.2072	27.5941	4.5913
	419	2	9.206	27.6053	9.1982
	420	2	9.2031	27.5912	13.8057
	421	2	9.1904	27.5961	18.3994
	422	1	9.204	27.5983	22.9902
	423	1	9.2001	27.6063	27.6067
	424	1	9.1953	27.5959	32.1943
	425	2	9.2023	27.6057	36.8027
	426	1	9.196	27.593	41.3935
	427	1	9.2098	27.5935	45.9906
	428	2	9.1907	27.5934	50.6011
	429	1	9.2043	27.6003	55.2055
	430	1	9.1927	32.2055	0.0027
	431	2	9.1918	32.194	4.6031
	432	2	9.203	32.2036	9.2067
	433	1	9.2089	32.1914	13.7991
	434	2	9.1925	32.2073	18.405
	435	2	9.1917	32.1932	23.0067
	436	2	9.2026	32.2049	27.6013
	437	1	9.2036	32.205	32.204
	438	1	9.2063	32.1991	36.8079
	439	1	9.1971	32.2069	41.3902
	440	1	9.1995	32.1918	46.0029
	441	2	9.2076	32.196	50.5965
	442	2	9.2017	32.2054	55.1956
	443	2	9.2086	36.8035	-0.0065
	444	1	9.1919	36.8088	4.6018
	445	2	9.2062	36.8047	9.2014
	446	2	9.1933	36.8014	13.8081
	447	2	9.1902	36.8067	18.3952
	448	1	9.2056	36.8014	23.0085
	449	2	9.2092	36.7959	27.5907
	450	2	9.1965	36.8056	32.1976
	451	2	9.2021	36.8033	36.8024
	452	1	9.2055	36.792	41.3903
	453	2	9.2063	36.8055	46.0044
	454	1	9.1943	36.8083	50.6075
	455	2	9.2029	36.8022	55.1911
	456	2	9.2008	41.3992	0.0064
	457	1	9.1976	41.4074	4.5992
	458	2	9.1964	41.4004	9.1927
	459	1	9.1974	41.3978	13.801
	460	1	9.1953	41.404	18.3996
	461	2	9.1917	41.4007	23.0099
	462	2	9.2071	41.3924	27.6058
	463	1	9.1951	41.4098	32.205
	464	2	9.2037	41.3931	36.804
	465	2	9.2012	41.4011	41.4007
	466	2	9.2087	41.4059	46.004
	467	2	9.1959	41.4092	50.5973
	468	2	9.2048	41.3959	55.192
	469	2	9.1963	45.994	-0.0035
	470	2	9.1936	45.9956	4.6017
	471	2	9.2036	46.0083	9.2092
	472	2	9.192	45.9936	13.8035
	473	2	9.2095	45.9985	18.3932
	474	1	9.2036	45.9932	22.9957
	475	2	9.202	46.0063	27.596
	476	1	9.1974	45.9986	32.209
	477	2	9.2097	46.0017	36.7918
	478	2	9.1965	46.0084	41.4034
	479	2	9.2055	46.009	46.0076
	480	2	9.2017	45.9945	50.6055
	481	2	9.2077	45.9971	55.196
	482	1	9.2044	50.5971	0.0006
	483	2	9.2088	50.6034	4.599
	484	1	9.1996	50.6	9.2025
	485	2	9.2097	50.592	13.7991
	486	2	9.2005	50.5962	18.4041
	487	2	9.193	50.5906	22.9971
	488	2	9.2059	50.5973	27.5916
	489	2	9.1969	50.5992	32.1901
	490	2	9.2081	50.607	36.8087
	491	2	9.1987	50.5914	41.4046
	492	2	9.2014	50.6045	46.0035
	493	1	9.2096	50.5991	50.6061
	494	1	9.2067	50.6032	55.1996
	495	2	9.1917	55.1904	-0.0006
	496	1	9.201	55.2043	4.5912
	497	1	9.2084	55.2081	9.1999
	498	2	9.2088	55.2068	13.7917
	499	1	9.2054	55.2026	18.4016
	500	2	9.2005	55.2085	22.9953
	501	2	9.205	55.2067	27.5962
	502	1	9.206	55.1972	32.2052
	503	2	9.1935	55.1969	36.8082
	504	2	9.2046	55.1986	41.3952
	505	2	9.1916	55.1917	45.9941
	506	2	9.1915	55.1993	50.6009
	507	1	9.2017	55.1978	55.195
	508	2	13.7946	0.0093	-0.0004
	509	1	13.7953	-0.0095	4.5968
	510	2	13.7991	0.0021	9.1973
	511	1	13.8087	0.0036	13.807
	512	1	13.7948	0.0027	18.4073
	513	2	13.8034	0.0072	23.0067
	514	1	13.7953	-0.0039	27.6038
	515	2	13.8065	-0.0043	32.1911
	516	2	13.8041	-0.0069	36.7997
	517	1	13.7952	-0.0096	41.397
	518	1	13.7938	-0.0097	45.999
	519	1	13.8001	-0.0049	50.6004
	520	2	13.8004	0.0004	55.2075
	521	2	13.7972	4.5945	-0.0079
	522	2	13.8058	4.6018	4.6029
	523	2	13.8063	4.6058	9.1968
	524	2	13.8018	4.6061	13.7967
	525	2	13.8076	4.5996	18.3991
	526	2	13.7967	4.6035	23.0002
	527	1	13.8048	4.5957	27.5946
	528	2	13.7935	4.6012	32.1957
	529	2	13.802	4.6067	36.7997
	530	2	13.7989	4.6066	41.4055
	531	2	13.8045	4.593	46.0081
	532	1	13.8054	4.5948	50.5992
	533	1	13.7924	4.603	55.1914
	534	2	13.8052	9.2037	0.008
	535	1	13.7994	9.2035	4.61
	536	2	13.8082	9.1963	9.2091
	537	2	13.7948	9.1943	13.7917
	538	2	13.7901	9.2039	18.4091
	539	2	13.7966	9.195	23.005
	540	2	13.7916	9.1901	27.6005
	541	2	13.803	9.2011	32.2018
	542	2	13.8048	9.1988	36.8077
	543	2	13.8093	9.2056	41.4003
	544	2	13.7915	9.2031	45.9928
	545	2	13.8006	9.2081	50.5982
	546	2	13.8074	9.1959	55.2069
	547	2	13.8066	13.805	-0.0091
	548	1	13.8014	13.7923	4.6046
	549	1	13.7941	13.8067	9.2049
	550	2	13.8011	13.7906	13.7923
	551	2	13.8031	13.8061	18.3971
	552	2	13.7994	13.7913	22.9923
	553	1	13.7971	13.8029	27.5993
	554	2	13.7999	13.8079	32.2076
	555	2	13.7952	13.7959	36.803
	556	2	13.7901	13.8092	41.3935
	557	2	13.798	13.7943	45.9937
	558	2	13.8099	13.8007	50.604
	559	2	13.799	13.7943	55.2013
	560	2	13.7959	18.4013	-0.0059
	561	2	13.7934	18.394	4.6068
	562	2	13.7916	18.4012	9.2061
	563	2	13.8099	18.3982	13.8069
	564	2	13.795	18.3988	18.4083
	565	1	13.7991	18.3902	22.9941
	566	2	13.8029	18.3902	27.5992
	567	2	13.797	18.3973	32.1917
	568	2	13.7942	18.3919	36.8026
	569	2	13.7944	18.3973	41.4072
	570	2	13.7955	18.3978	46.0081
	571	2	13.7921	18.3988	50.5997
	572	2	13.8081	18.4028	55.1905
	573	1	13.7978	23.001	-0.0084
	574	2	13.8001	22.9934	4.598
	575	2	13.7993	22.9991	9.1949
	576	2	13.8082	22.9995	13.7989
	577	2	13.8065	23.0006	18.4073
	578	2	13.804	23.0033	23.0031
	579	1	13.8028	23.006	27.6091
	580	2	13.8098	22.9961	32.2045
	581	2	13.7922	22.9964	36.7907
	582	2	13.802	23.0035	41.404
	583	2	13.7968	22.9956	45.9927
	584	2	13.8094	23.0051	50.6069
	585	2	13.809	23.0058	55.2066
	586	2	13.7902	27.5949	-0.0088
	587	2	13.8028	27.5957	4.5975
	588	2	13.7931	27.5961	9.1901
	589	2	13.8012	27.6055	13.8046
	590	2	13.8086	27.6009	18.4073
	591	2	13.8007	27.5947	23.0089
	592	2	13.7996	27.6015	27.5917
	593	2	13.7932	27.6026	32.1969
	594	2	13.8053	27.5965	36.8049
	595	2	13.7995	27.6094	41.4041
	596	2	13.7903	27.5949	45.9955
	597	1	13.7979	27.6072	50.6044
	598	1	13.8025	27.6081	55.1949
	599	2	13.7938	32.2066	-0.008
	600	2	13.7962	32.2083	4.601
	601	2	13.7949	32.2027	9.199
	602	2	13.7952	32.1978	13.7931
	603	2	13.8086	32.1966	18.3914
	604	2	13.7996	32.1913	22.9908
	605	2	13.7912	32.202	27.5918
	606	2	13.7905	32.1961	32.2028
	607	2	13.7941	32.209	36.7939
	608	1	13.8064	32.1963	41.4037
	609	2	13.7922	32.1951	45.9977
	610	2	13.8097	32.1987	50.5957
	611	2	13.7976	32.1977	55.2082
	612	1	13.8034	36.7911	0.0015
	613	2	13.8095	36.8073	4.6048
	614	1	13.7966	36.8096	9.2026
	615	1	13.795	36.8031	13.8086
	616	2	13.8036	36.7948	18.3955
	617	1	13.7964	36.7948	22.9992
	618	2	13.7955	36.7935	27.5932
	619	2	13.7911	36.8032	32.2086
	620	1	13.7937	36.804	36.8001
	621	2	13.7927	36.7935	41.3938
	622	2	13.8036	36.8064	46.0071
	623	2	13.8061	36.7977	50.5929
	624	1	13.7928	36.7936	55.2081
	625	2	13.7954	41.393	-0.0034
	626	1	13.7914	41.4056	4.5911
	627	2	13.793	41.4025	9.1949
	628	1	13.8042	41.4057	13.7967
	629	2	13.805	41.4056	18.3952
	630	2	13.7929	41.4055	23.0086
	631	2	13.8074	41.4095	27.5955
	632	2	13.7952	41.4075	32.1918
	633	2	13.8076	41.3953	36.7901
	634	2	13.799	41.397	41.3988
	635	1	13.8051	41.4	46.0
	636	2	13.8075	41.4079	50.6087
	637	1	13.8086	41.3989	55.1957
	638	1	13.7922	45.9993	0.0099
	639	2	13.7953	45.9961	4.5906
	640	2	13.7908	46.0044	9.2013
	641	2	13.7902	46.0027	13.7966
	642	2	13.8084	45.9978	18.3973
	643	2	13.8026	45.9981	22.9926
	644	1	13.799	46.0094	27.6074
	645	2	13.7913	46.0007	32.2053
	646	2	13.8008	45.9979	36.7981
	647	1	13.8077	46.0087	41.4034
	648	2	13.7919	45.9921	45.9946
	649	1	13.8057	45.992	50.6001
	650	2	13.795	46.0007	55.201
	651	2	13.7998	50.5977	0.009
	652	2	13.806	50.5928	4.6081
	653	1	13.8075	50.6067	9.2032
	654	2	13.7958	50.6029	13.7925
	655	2	13.799	50.5943	18.3998
	656	1	13.8098	50.5965	22.9912
	657	1	13.7955	50.5915	27.5963
	658	1	13.8038	50.5964	32.191
	659	2	13.81	50.6089	36.7975
	660	2	13.8058	50.6001	41.4087
	661	2	13.7913	50.6049	46.0085
	662	2	13.8049	50.5977	50.6076
	663	2	13.801	50.6034	55.196
	664	2	13.7986	55.21	-0.0057
	665	2	13.7914	55.1905	4.5935
	666	2	13.7946	55.1952	9.2024
	667	2	13.798	55.193	13.8028
	668	1	13.7967	55.2066	18.3908
	669	2	13.8069	55.2009	22.9955
	670	2	13.8057	55.2093	27.5927
	671	2	13.8094	55.1956	32.2055
	672	1	13.8013	55.1913	36.8037
	673	2	13.7984	55.1973	41.3922
	674	2	13.8092	55.2083	46.0014
	675	1	13.8082	55.2085	50.5999
	676	2	13.8064	55.2098	55.2002
	677	1	18.3925	-0.0079	-0.0059
	678	2	18.3905	0.0002	4.604
	679	2	18.405	0.002	9.2078
	680	2	18.4038	-0.01	13.8078
	681	2	18.4049	-0.0051	18.4054
	682	2	18.4044	-0.0027	23.009
	683	2	18.4098	0.0077	27.5926
	684	1	18.3986	0.0007	32.2028
	685	2	18.3933	0.0041	36.7901
	686	2	18.3968	0.0009	41.4008
	687	1	18.3964	-0.0006	45.996
	688	2	18.3986	0.0022	50.6033
	689	2	18.3931	-0.002	55.1986
	690	2	18.3917	4.5939	0.0005
	691	2	18.4069	4.597	4.6051
	692	2	18.3967	4.5999	9.1927
	693	2	18.4017	4.6058	13.7997
	694	2	18.3937	4.5993	18.3954
	695	2	18.4062	4.6046	22.9956
	696	2	18.4001	4.5975	27.5994
	697	2	18.3948	4.6063	32.2049
	698	2	18.3947	4.5955	36.7914
	699	2	18.4039	4.608	41.4008
	700	1	18.3994	4.598	45.9922
	701	1	18.3973	4.6069	50.6032
	702	1	18.4007	4.6011	55.2032
	703	2	18.3983	9.1932	0.0058
	704	1	18.3986	9.2028	4.5916
	705	2	18.3958	9.2058	9.2024
	706	2	18.3913	9.1983	13.8049
	707	2	18.3995	9.1904	18.4044
	708	2	18.3961	9.2004	22.9996
	709	2	18.4055	9.1913	27.6068
	710	2	18.3903	9.2	32.2051
	711	1	18.3902	9.2021	36.7974
	712	1	18.3964	9.208	41.4037
	713	2	18.4083	9.2033	46.0092
	714	1	18.3903	9.2069	50.5922
	715	2	18.4052	9.2029	55.1927
	716	2	18.3936	13.8067	0.0051
	717	1	18.4045	13.7913	4.6034
	718	2	18.3914	13.7969	9.1903
	719	1	18.4045	13.7914	13.8015
	720	2	18.3989	13.7951	18.3925
	721	2	18.4002	13.806	22.9964
	722	2	18.3968	13.7935	27.602
	723	2	18.4077	13.7908	32.1996
	724	2	18.4076	13.7988	36.7949
	725	1	18.3916	13.7984	41.3959
	726	2	18.4074	13.8009	45.9944
	727	1	18.4079	13.7993	50.5936
	728	2	18.4012	13.8099	55.2022
	729	1	18.4043	18.4041	0.0004
	730	2	18.3928	18.3954	4.609
	731	2	18.4094	18.3972	9.2065
	732	2	18.397	18.4074	13.791
	733	1	18.4063	18.4033	18.406
	734	1	18.3955	18.4032	22.9946
	735	2	18.3967	18.4058	27.6009
	736	2	18.4052	18.3939	32.2004
	737	2	18.4023	18.398	36.7925
	738	1	18.3936	18.398	41.4065
	739	2	18.3939	18.3939	45.9994
	740	1	18.4034	18.4055	50.6046
	741	1	18.3981	18.4049	55.1971
	742	2	18.4074	23.0032	-0.0016
	743	2	18.4022	23.0093	4.5916
	744	1	18.4023	22.9969	9.2045
	745	1	18.3922	23.0084	13.7992
	746	2	18.4055	23.0076	18.4031
	747	1	18.4027	22.9984	23.009
	748	2	18.3951	22.997	27.6027
	749	2	18.4059	22.9901	32.2093
	750	2	18.4017	22.9925	36.7988
	751	2	18.4006	22.9941	41.3999
	752	1	18.4002	22.99	45.9943
	753	2	18.4026	22.9933	50.6035
	754	2	18.405	23.0009	55.2063
	755	2	18.3966	27.5902	-0.0031
	756	2	18.408	27.5991	4.6096
	757	1	18.3911	27.6059	9.2038
	758	2	18.401	27.5964	13.806
	759	2	18.3946	27.6021	18.406
	760	1	18.4069	27.593	23.0094
	761	1	18.3926	27.5978	27.5992
	762	2	18.4049	27.6005	32.1937
	763	2	18.4062	27.6028	36.7996
	764	2	18.403	27.608	41.4099
	765	2	18.393	27.5914	46.0083
	766	1	18.3967	27.6078	50.6077
	767	2	18.402	27.6005	55.1974
	768	2	18.4097	32.1935	-0.0091
	769	2	18.3904	32.1948	4.6059
	770	2	18.3917	32.1996	9.2034
	771	1	18.3991	32.2029	13.8013
	772	1	18.3972	32.1983	18.4023
	773	2	18.3948	32.1955	23.0029
	774	2	18.4091	32.2	27.6025
	775	2	18.3906	32.1955	32.1941
	776	2	18.3952	32.2048	36.8089
	777	1	18.4035	32.202	41.3949
	778	2	18.4012	32.1945	46.0014
	779	2	18.4039	32.1981	50.5938
	780	2	18.4036	32.193	55.1902
	781	2	18.4	36.8082	-0.0081
	782	2	18.3933	36.791	4.6034
	783	2	18.3983	36.7949	9.1979
	784	1	18.4099	36.7925	13.7997
	785	1	18.3974	36.8042	18.407
	786	2	18.3913	36.803	23.0005
	787	2	18.3988	36.7908	27.5904
	788	2	18.3946	36.799	32.1943
	789	2	18.3994	36.8011	36.8023
	790	1	18.4027	36.7952	41.4079
	791	1	18.4077	36.8041	46.0011
	792	2	18.3986	36.7925	50.6076
	793	1	18.4057	36.7939	55.2094
	794	1	18.4085	41.4006	-0.0091
	795	2	18.3992	41.3964	4.5972
	796	2	18.407	41.3922	9.1948
	797	2	18.3965	41.3987	13.7962
	798	1	18.4097	41.3955	18.3983
	799	2	18.4013	41.3922	22.9953
	800	2	18.3963	41.3958	27.59
	801	2	18.3945	41.4043	32.2079
	802	2	18.4097	41.3942	36.8055
	803	2	18.4032	41.4077	41.4057
	804	2	18.4006	41.3999	46.0036
	805	2	18.4055	41.4049	50.6039
	806	1	18.3994	41.4022	55.1963
	807	2	18.407	46.0048	-0.0054
	808	2	18.4013	46.0071	4.6013
	809	1	18.3941	46.0066	9.1978
	810	1	18.3949	46.0039	13.7912
	811	2	18.4089	45.9991	18.4053
	812	2	18.3921	45.9923	23.0021
	813	1	18.4066	45.9978	27.6081
	814	2	18.3965	46.0086	32.201
	815	2	18.3931	46.0021	36.8064
	816	2	18.4014	46.0061	41.3933
	817	2	18.409	45.9989	46.0032
	818	2	18.3967	45.9955	50.6048
	819	2	18.3902	46.0058	55.2005
	820	2	18.4064	50.597	-0.0069
	821	2	18.3953	50.6028	4.6021
	822	2	18.3956	50.599	9.2061
	823	1	18.3912	50.607	13.8043
	824	2	18.4023	50.6063	18.3909
	825	2	18.392	50.605	22.9919
	826	2	18.4025	50.5958	27.608
	827	2	18.3979	50.6043	32.1924
	828	2	18.4049	50.602	36.7968
	829	1	18.392	50.603	41.4018
	830	2	18.408	50.6099	46.0054
	831	1	18.3932	50.6038	50.6025
	832	1	18.3918	50.6088	55.194
	833	2	18.4008	55.2094	-0.0015
	834	1	18.41	55.208	4.6048
	835	2	18.3989	55.2042	9.1999
	836	2	18.4078	55.2072	13.7951
	837	2	18.3997	55.2068	18.4087
	838	1	18.3947	55.198	22.993
	839	2	18.3986	55.1937	27.6075
	840	1	18.3955	55.1929	32.204
	841	2	18.3927	55.2064	36.8036
	842	1	18.3929	55.2068	41.4015
	843	2	18.3979	55.2004	46.0068
	844	2	18.4058	55.2032	50.6069
	845	2	18.3935	55.1999	55.2029
	846	1	22.9941	-0.003	-0.0087
	847	2	22.9947	0.0053	4.5951
	848	2	22.9993	0.0054	9.2089
	849	2	23.0033	0.003	13.7931
	850	2	22.9942	0.0012	18.4089
	851	1	22.9949	0.0059	22.9984
	852	2	22.9967	-0.0071	27.5954
	853	2	23.0004	-0.003	32.2061
	854	1	22.9943	0.0095	36.7967
	855	2	23.0093	0.0091	41.4073
	856	2	22.9956	-0.002	45.9936
	857	2	23.0013	-0.0022	50.5952
	858	2	22.9951	-0.0066	55.1972
	859	2	23.0021	4.591	-0.0058
	860	2	22.9968	4.5941	4.5974
	861	2	23.0079	4.6009	9.2001
	862	2	23.0016	4.5934	13.7918
	863	2	23.002	4.5979	18.3974
	864	2	23.0061	4.607	23.0025
	865	2	23.0041	4.6017	27.597
	866	1	23.0033	4.597	32.2083
	867	2	22.9914	4.6078	36.7931
	868	1	22.9981	4.5971	41.3925
	869	2	23.0097	4.5906	46.0098
	870	2	23.0032	4.6047	50.6048
	871	2	23.0092	4.6091	55.1942
	872	1	23.0045	9.2085	0.001
	873	2	23.0007	9.1915	4.6091
	874	1	22.9962	9.1983	9.204
	875	2	22.9921	9.1958	13.7919
	876	2	22.9996	9.1983	18.398
	877	2	23.0016	9.193	23.0089
	878	2	22.9995	9.2082	27.5936
	879	2	22.998	9.2009	32.1925
	880	2	23.0095	9.1996	36.804
	881	2	23.0023	9.2049	41.3911
	882	2	23.0076	9.208	46.0066
	883	2	22.9942	9.2098	50.5927
	884	2	23.0074	9.2031	55.1917
	885	2	23.0092	13.8026	0.0047
	886	2	23.0072	13.7943	4.5964
	887	2	22.9908	13.7903	9.1917
	888	2	22.9913	13.792	13.8081
	889	2	22.9926	13.7927	18.3955
	890	2	22.9996	13.797	22.9976
	891	2	22.9925	13.8058	27.6065
	892	2	23.0003	13.798	32.2006
	893	1	23.0024	13.8064	36.8019
	894	1	22.9948	13.7933	41.4
	895	1	23.0054	13.8012	45.9987
	896	2	23.0003	13.7906	50.6072
	897	2	22.9994	13.7946	55.2063
	898	2	22.9948	18.4017	0.0004
	899	2	22.9972	18.4011	4.6007
	900	2	23.0072	18.4053	9.2087
	901	2	23.0098	18.4019	13.7901
	902	2	22.9984	18.404	18.4095
	903	1	23.0049	18.4059	22.9953
	904	2	22.9993	18.4077	27.591
	905	1	23.0055	18.4098	32.2018
	906	2	22.999	18.4029	36.7987
	907	1	22.9955	18.3955	41.406
	908	2	23.0074	18.402	46.0081
	909	2	23.0006	18.3932	50.5965
	910	2	23.0094	18.4054	55.1983
	911	1	23.0061	23.0017	0.0066
	912	1	23.0028	22.999	4.5926
	913	2	23.0004	23.0004	9.1923
	914	2	23.009	23.0021	13.7972
	915	2	22.9939	23.0083	18.3937
	916	2	23.0066	23.0025	23.006
	917	2	22.9971	23.0072	27.6025
	918	1	23.005	23.0065	32.207
	919	1	22.9951	23.009	36.7925
	920	2	22.9982	22.9963	41.3999
	921	1	23.0007	23.0085	45.9936
	922	2	23.0076	23.0079	50.5936
	923	2	23.0081	22.9994	55.1909
	924	2	22.9912	27.5943	0.0036
	925	1	23.0095	27.5943	4.6089
	926	2	22.9932	27.6036	9.2067
	927	1	23.0052	27.5948	13.8016
	928	1	23.0013	27.607	18.4068
	929	1	23.0001	27.6051	22.9956
	930	2	22.9977	27.5911	27.5945
	931	1	22.9968	27.592	32.2033
	932	1	23.0008	27.5937	36.7998
	933	2	22.9979	27.6004	41.3918
	934	1	22.994	27.5973	45.9983
	935	1	23.0071	27.5976	50.5913
	936	2	23.0027	27.5905	55.1929
	937	2	23.0015	32.2095	-0.0041
	938	1	23.0097	32.1908	4.6081
	939	2	22.9951	32.2059	9.2064
	940	2	22.9973	32.2088	13.8036
	941	2	22.9961	32.2018	18.4076
	942	2	23.0048	32.2031	23.0017
	943	2	23.0034	32.2061	27.6041
	944	2	23.0025	32.1981	32.1981
	945	2	23.001	32.1957	36.805
	946	2	22.9914	32.1992	41.398
	947	2	23.0014	32.206	45.9996
	948	2	23.008	32.1903	50.5945
	949	2	22.9994	32.2017	55.2009
	950	2	23.0062	36.8072	0.003
	951	2	22.9917	36.8072	4.6057
	952	2	23.0099	36.7965	9.1979
	953	2	22.9956	36.7976	13.807
	954	2	22.9999	36.7928	18.406
	955	1	23.0084	36.7922	22.9956
	956	1	22.9967	36.798	27.6099
	957	1	23.0045	36.7955	32.1929
	958	2	22.9972	36.8021	36.7926
	959	2	22.9925	36.7939	41.399
	960	2	22.9933	36.8081	46.0029
	961	2	23.0057	36.8067	50.6011
	962	2	22.9975	36.8094	55.2013
	963	1	22.9985	41.3947	-0.0016
	964	2	23.0055	41.4032	4.5988
	965	2	23.0078	41.4012	9.1999
	966	2	23.0039	41.4063	13.8058
	967	2	23.0069	41.3902	18.4006
	968	2	23.0091	41.4065	22.9974
	969	2	22.9998	41.4011	27.6038
	970	2	22.9989	41.4018	32.2091
	971	2	22.9982	41.3962	36.8021
	972	2	23.0053	41.4096	41.3987
	973	2	23.002	41.406	46.003
	974	1	22.9926	41.3948	50.5971
	975	2	23.0046	41.3911	55.1993
	976	2	23.0064	45.994	0.0075
	977	1	22.9952	45.9946	4.602
	978	2	22.9986	45.9983	9.2002
	979	1	22.9903	45.9973	13.795
	980	2	22.9932	45.998	18.39
	981	2	23.0086	45.99	22.9964
	982	1	23.0056	46.0014	27.6096
	983	2	23.004	46.0077	32.1987
	984	1	22.995	46.0015	36.802
	985	2	22.9941	46.0018	41.4053
	986	2	22.9993	45.9995	45.996
	987	2	22.9931	46.0053	50.5908
	988	2	22.9962	45.9913	55.201
	989	1	22.9948	50.6073	-0.0026
	990	1	23.0033	50.5995	4.6042
	991	2	22.9962	50.5924	9.2081
	992	2	22.9998	50.5975	13.7926
	993	1	23.0048	50.6069	18.3947
	994	2	23.0093	50.6056	23.0
	995	1	23.0069	50.6093	27.6029
	996	2	23.0013	50.6084	32.1967
	997	2	22.9992	50.5979	36.8002
	998	1	22.9904	50.5965	41.3939
	999	2	22.9958	50.5955	45.9941
	1000	1	23.0007	50.6023	50.5997
	1001	2	22.9913	50.5954	55.2022
	1002	2	23.0009	55.2043	-0.0021