Nickle Copper Simulation

365 	atoms
0 	bonds
0 	angles
0 	dihedrals
0 	impropers

2	atom types
0	bond types
0	angle types
0	dihedral types
0	improper types

-0.02	18.42	xlo xhi
-0.02	18.42	ylo yhi
-0.02	18.42	zlo zhi

Atoms

	1	2	-0.0054	-0.0027	-0.0097
	2	2	0.0081	0.0016	4.6051
	3	2	0.0001	0.0029	9.1905
	4	2	0.0093	0.0011	13.7901
	5	1	0.0094	0.002	18.3966
	6	1	0.0028	4.5928	0.0045
	7	2	-0.0012	4.5933	4.6042
	8	2	-0.0052	4.5991	9.2018
	9	2	0.0027	4.5941	13.809
	10	2	0.0076	4.5976	18.4039
	11	1	0.0025	9.1971	-0.001
	12	2	-0.0014	9.1989	4.6032
	13	2	0.0022	9.1965	9.2015
	14	2	-0.0065	9.1944	13.8063
	15	2	-0.0048	9.2005	18.391
	16	2	0.0016	13.8002	-0.0015
	17	2	-0.0042	13.8036	4.6066
	18	1	0.0064	13.7903	9.1925
	19	2	-0.0087	13.805	13.7999
	20	2	-0.0031	13.8037	18.4064
	21	2	0.0051	18.3928	-0.0069
	22	2	-0.0033	18.4007	4.5978
	23	2	0.0003	18.4006	9.2018
	24	2	-0.0018	18.3991	13.7918
	25	1	0.0064	18.4047	18.4071
	26	2	4.6053	0.0026	-0.0037
	27	1	4.6017	-0.0079	4.5938
	28	2	4.5914	-0.0077	9.1995
	29	2	4.6056	0.0088	13.7955
	30	2	4.6018	-0.0021	18.3905
	31	2	4.6009	4.6087	-0.0066
	32	2	4.5954	4.5912	4.595
	33	2	4.6031	4.602	9.194
	34	2	4.6043	4.6045	13.7944
	35	2	4.5941	4.5942	18.3992
	36	1	4.6009	9.1979	-0.0057
	37	1	4.6075	9.2091	4.5933
	38	2	4.5985	9.2057	9.1905
	39	2	4.5912	9.194	13.8056
	40	2	4.5989	9.2038	18.3973
	41	2	4.6061	13.804	-0.0064
	42	2	4.5901	13.8097	4.6014
	43	2	4.6034	13.7917	9.197
	44	1	4.6098	13.7948	13.809
	45	2	4.6001	13.7997	18.4046
	46	2	4.5912	18.4084	-0.0006
	47	2	4.5983	18.3909	4.6013
	48	2	4.6099	18.4032	9.2064
	49	2	4.5976	18.4083	13.8043
	50	2	4.6029	18.4054	18.3909
	51	1	9.1945	-0.0094	-0.0069
	52	2	9.1971	0.0088	4.6064
	53	2	9.204	0.0065	9.206
	54	2	9.202	-0.0004	13.7966
	55	2	9.2044	0.0054	18.3945
	56	2	9.2051	4.5956	0.0031
	57	2	9.1924	4.5903	4.5938
	58	1	9.1947	4.6034	9.2057
	59	2	9.198	4.5991	13.7959
	60	1	9.1919	4.5916	18.4038
	61	1	9.193	9.1974	0.0099
	62	2	9.2024	9.1995	4.6021
	63	1	9.2026	9.1974	9.198
	64	2	9.1957	9.2038	13.7939
	65	1	9.1984	9.2042	18.3924
	66	1	9.2069	13.7942	0.0046
	67	1	9.1982	13.799	4.6044
	68	2	9.194	13.805	9.2034
	69	1	9.1979	13.807	13.8095
	70	2	9.1987	13.7918	18.3901
	71	2	9.1918	18.3995	-0.0081
	72	1	9.1929	18.4087	4.6068
	73	2	9.1931	18.3952	9.2007
	74	1	9.1987	18.3905	13.8003
	75	2	9.1917	18.4067	18.4099
	76	2	13.7921	0.0014	-0.0015
	77	1	13.8045	0.0047	4.6046
	78	1	13.792	0.0046	9.2092
	79	2	13.7956	0.0052	13.7923
	80	2	13.8018	-0.005	18.4075
	81	2	13.8001	4.5985	-0.0082
	82	2	13.7947	4.601	4.6074
	83	2	13.8098	4.6018	9.2039
	84	1	13.8006	4.6032	13.7925
	85	2	13.799	4.6015	18.3985
	86	2	13.8011	9.2071	0.0036
	87	2	13.7955	9.1955	4.6018
	88	2	13.8034	9.2003	9.2056
	89	2	13.8059	9.1982	13.8044
	90	1	13.8028	9.2086	18.4084
	91	2	13.7988	13.8027	-0.0067
	92	2	13.803	13.7993	4.6035
	93	1	13.7927	13.8004	9.2015
	94	2	13.7973	13.8066	13.8044
	95	1	13.8005	13.8054	18.4095
	96	2	13.7975	18.3918	-0.0004
	97	2	13.8089	18.3958	4.6061
	98	2	13.8038	18.4079	9.1972
	99	2	13.8099	18.3953	13.8003
	100	2	13.808	18.4032	18.3961
	101	2	18.3975	0.0046	-0.0005
	102	2	18.392	0.0097	4.6054
	103	2	18.3948	0.005	9.202
	104	2	18.4093	0.0035	13.799
	105	1	18.409	0.0026	18.4076
	106	2	18.3963	4.6043	-0.0028
	107	2	18.3956	4.6013	4.5988
	108	2	18.3973	4.6026	9.1987
	109	2	18.4041	4.603	13.7955
	110	2	18.3948	4.5995	18.3946
	111	2	18.4022	9.1915	0.0035
	112	2	18.4036	9.1914	4.6083
	113	1	18.4041	9.1921	9.203
	114	2	18.4076	9.2052	13.7965
	115	1	18.4058	9.1904	18.4078
	116	1	18.405	13.8064	0.003
	117	2	18.4008	13.8011	4.6092
	118	2	18.4091	13.8083	9.1931
	119	2	18.3929	13.8052	13.8029
	120	2	18.4058	13.7973	18.398
	121	2	18.4092	18.4052	0.0071
	122	2	18.3934	18.391	4.6099
	123	1	18.3922	18.403	9.2013
	124	2	18.4089	18.3989	13.7933
	125	2	18.3982	18.4002	18.3965
	126	2	2.2935	2.2949	-0.0079
	127	2	2.2958	2.2989	4.5978
	128	2	2.3075	2.3086	9.2072
	129	1	2.2919	2.3002	13.8068
	130	2	2.2932	2.308	18.4067
	131	1	2.2919	6.8939	-0.01
	132	2	2.3004	6.9059	4.6026
	133	2	2.2994	6.8937	9.1985
	134	1	2.292	6.8914	13.7948
	135	2	2.3007	6.8973	18.4071
	136	2	2.2935	11.4949	-0.003
	137	2	2.2906	11.4988	4.6039
	138	2	2.3058	11.4972	9.1959
	139	2	2.3077	11.4995	13.7997
	140	1	2.3061	11.5083	18.3926
	141	2	2.3044	16.1085	-0.0061
	142	2	2.3069	16.0974	4.5961
	143	2	2.292	16.0941	9.2019
	144	1	2.3043	16.0994	13.8019
	145	2	2.2902	16.1036	18.4088
	146	2	6.908	2.3098	0.0061
	147	2	6.895	2.2977	4.6074
	148	1	6.8943	2.3047	9.2094
	149	1	6.9095	2.2973	13.8064
	150	2	6.8966	2.3096	18.401
	151	2	6.9039	6.9061	0.0083
	152	1	6.9063	6.8928	4.5957
	153	1	6.9053	6.892	9.2093
	154	2	6.9044	6.9046	13.7953
	155	2	6.9041	6.8997	18.3913
	156	1	6.892	11.5034	0.0092
	157	2	6.9087	11.4924	4.6068
	158	1	6.9012	11.5099	9.2079
	159	2	6.8955	11.4995	13.7959
	160	2	6.902	11.5075	18.4045
	161	2	6.898	16.0902	-0.0053
	162	2	6.9096	16.0901	4.5983
	163	2	6.9025	16.0907	9.2036
	164	1	6.8953	16.1085	13.7901
	165	2	6.8992	16.1075	18.4043
	166	2	11.5	2.3002	0.0045
	167	2	11.4956	2.3013	4.594
	168	2	11.4922	2.2926	9.1918
	169	2	11.4945	2.2999	13.7986
	170	2	11.4953	2.2902	18.394
	171	2	11.4964	6.9001	0.0035
	172	2	11.5019	6.9024	4.5928
	173	2	11.495	6.8999	9.1929
	174	1	11.4974	6.9069	13.8067
	175	1	11.5078	6.8919	18.3921
	176	2	11.4947	11.4976	0.0031
	177	1	11.5071	11.4914	4.6048
	178	2	11.5001	11.4993	9.2051
	179	2	11.4947	11.4983	13.7935
	180	2	11.4926	11.503	18.4
	181	1	11.4908	16.0975	-0.0023
	182	2	11.508	16.1004	4.601
	183	2	11.4911	16.1069	9.2057
	184	2	11.507	16.0904	13.8024
	185	2	11.5096	16.1068	18.4045
	186	1	16.0924	2.2903	-0.0061
	187	1	16.1009	2.3006	4.5941
	188	2	16.1093	2.2955	9.1964
	189	2	16.0939	2.294	13.7949
	190	2	16.0909	2.2907	18.4055
	191	2	16.0971	6.906	0.0069
	192	1	16.0915	6.9011	4.6056
	193	2	16.1003	6.9076	9.2008
	194	2	16.1004	6.9035	13.7954
	195	1	16.0987	6.8957	18.4085
	196	2	16.0961	11.5053	0.007
	197	2	16.1048	11.4929	4.5963
	198	2	16.1041	11.493	9.1931
	199	2	16.0911	11.4997	13.7995
	200	2	16.1077	11.5098	18.3971
	201	2	16.0924	16.1003	-0.0083
	202	1	16.1011	16.1016	4.597
	203	1	16.0942	16.094	9.1953
	204	2	16.1087	16.1099	13.7986
	205	1	16.0982	16.0963	18.406
	206	2	2.2911	0.0002	2.2973
	207	2	2.3051	-0.0078	6.8916
	208	2	2.3088	0.0007	11.4989
	209	2	2.2985	-0.0005	16.0903
	210	2	2.2914	4.6092	2.3083
	211	2	2.302	4.5903	6.906
	212	2	2.2904	4.5907	11.5048
	213	1	2.3003	4.6036	16.0985
	214	2	2.3001	9.2036	2.2943
	215	1	2.2933	9.2076	6.9058
	216	2	2.2936	9.2006	11.4935
	217	2	2.293	9.207	16.0956
	218	2	2.2923	13.8096	2.3011
	219	1	2.3077	13.7931	6.898
	220	2	2.3089	13.8013	11.5025
	221	1	2.2987	13.8036	16.1045
	222	1	2.3037	18.4085	2.3019
	223	2	2.2905	18.3977	6.8971
	224	1	2.2979	18.4092	11.4906
	225	2	2.3024	18.404	16.1065
	226	2	6.8911	-0.0014	2.3093
	227	1	6.9088	0.0075	6.8901
	228	1	6.9058	-0.007	11.5065
	229	2	6.8983	-0.0029	16.108
	230	2	6.8971	4.5984	2.2902
	231	2	6.8957	4.6098	6.897
	232	2	6.9025	4.5924	11.5079
	233	1	6.9048	4.595	16.1029
	234	2	6.8974	9.2049	2.3011
	235	2	6.9013	9.2037	6.8938
	236	1	6.9029	9.1975	11.4943
	237	2	6.8923	9.191	16.1064
	238	2	6.9075	13.7928	2.3028
	239	2	6.8926	13.8073	6.8917
	240	1	6.9	13.8004	11.506
	241	2	6.9024	13.7925	16.108
	242	2	6.8914	18.3999	2.2922
	243	2	6.9041	18.4076	6.8916
	244	1	6.9085	18.4079	11.4924
	245	1	6.9067	18.4099	16.0901
	246	2	11.5029	-0.0085	2.2983
	247	2	11.5042	-0.0095	6.8949
	248	1	11.4904	0.0015	11.5026
	249	2	11.5014	-0.0083	16.103
	250	1	11.5067	4.59	2.3045
	251	2	11.506	4.5926	6.8921
	252	2	11.4937	4.5944	11.507
	253	1	11.4936	4.5914	16.0933
	254	1	11.4938	9.1975	2.303
	255	1	11.497	9.2065	6.8918
	256	2	11.5077	9.1998	11.508
	257	2	11.4929	9.2066	16.1032
	258	2	11.5089	13.8023	2.307
	259	2	11.4987	13.8065	6.8989
	260	2	11.4992	13.808	11.5085
	261	1	11.5054	13.7971	16.0957
	262	1	11.5037	18.4081	2.2906
	263	2	11.5059	18.4085	6.8949
	264	2	11.4995	18.4018	11.5006
	265	1	11.5055	18.3903	16.1045
	266	2	16.1096	-0.0053	2.2931
	267	1	16.1056	-0.0002	6.8907
	268	1	16.0965	0.0074	11.5022
	269	2	16.1052	0.0046	16.1093
	270	2	16.1008	4.5953	2.3093
	271	2	16.1006	4.6047	6.9097
	272	2	16.0906	4.6026	11.4946
	273	2	16.0964	4.5987	16.0906
	274	1	16.0978	9.1965	2.293
	275	1	16.1023	9.2073	6.898
	276	2	16.1083	9.1997	11.508
	277	2	16.1047	9.1976	16.0998
	278	2	16.0967	13.7923	2.2955
	279	2	16.0942	13.7917	6.9014
	280	1	16.0922	13.8065	11.5011
	281	2	16.095	13.8061	16.0926
	282	2	16.101	18.4086	2.3098
	283	2	16.1003	18.3956	6.9006
	284	1	16.1089	18.3943	11.4913
	285	1	16.1017	18.3916	16.1043
	286	1	0.0069	2.2949	2.2927
	287	1	0.001	2.3031	6.8901
	288	2	0.0074	2.3017	11.4981
	289	1	-0.0045	2.2916	16.0982
	290	2	0.0032	6.9018	2.2979
	291	2	-0.0001	6.9027	6.8919
	292	1	0.0087	6.9069	11.4949
	293	2	0.0029	6.8978	16.1023
	294	2	0.0018	11.495	2.3086
	295	2	0.0092	11.4929	6.9059
	296	2	0.0073	11.4983	11.5023
	297	2	-0.002	11.4944	16.1053
	298	2	-0.0072	16.0944	2.2972
	299	1	-0.0083	16.0941	6.9035
	300	1	0.0062	16.1021	11.5078
	301	2	0.0077	16.0919	16.1008
	302	1	4.5951	2.304	2.2977
	303	1	4.594	2.3085	6.8941
	304	1	4.6057	2.3052	11.5085
	305	2	4.5996	2.2926	16.0944
	306	1	4.5933	6.907	2.2967
	307	1	4.5924	6.9086	6.8928
	308	1	4.5944	6.9074	11.504
	309	2	4.6014	6.9012	16.0907
	310	2	4.597	11.4957	2.3022
	311	2	4.6039	11.4919	6.8924
	312	1	4.5902	11.5041	11.5091
	313	2	4.6094	11.504	16.0989
	314	2	4.5955	16.1089	2.2953
	315	1	4.5927	16.0909	6.8969
	316	2	4.6024	16.0989	11.5071
	317	2	4.602	16.1038	16.1087
	318	1	9.1962	2.2972	2.2984
	319	1	9.2034	2.2958	6.9063
	320	2	9.2034	2.3081	11.4972
	321	1	9.1937	2.2901	16.0989
	322	2	9.1995	6.9076	2.3069
	323	2	9.1905	6.9067	6.8902
	324	2	9.2005	6.9043	11.5048
	325	2	9.1997	6.9071	16.0939
	326	2	9.2056	11.4971	2.3094
	327	1	9.1997	11.5068	6.891
	328	1	9.2085	11.4995	11.5051
	329	1	9.1988	11.499	16.1007
	330	1	9.2025	16.1092	2.3082
	331	2	9.2083	16.1086	6.8924
	332	1	9.2096	16.0937	11.4911
	333	2	9.2023	16.0919	16.0907
	334	1	13.8033	2.2957	2.3092
	335	2	13.803	2.3018	6.9098
	336	1	13.8027	2.3019	11.5047
	337	1	13.8093	2.3012	16.1044
	338	2	13.8062	6.8915	2.2938
	339	2	13.808	6.8916	6.9048
	340	2	13.808	6.8907	11.4904
	341	1	13.7963	6.9006	16.1011
	342	2	13.808	11.4984	2.305
	343	2	13.7919	11.504	6.9004
	344	2	13.8065	11.4973	11.4901
	345	1	13.7953	11.4999	16.1083
	346	2	13.7977	16.0926	2.3003
	347	1	13.7992	16.0921	6.9082
	348	2	13.7998	16.1041	11.4968
	349	2	13.7914	16.0948	16.1062
	350	2	18.3906	2.3086	2.302
	351	2	18.4028	2.2956	6.8952
	352	2	18.4053	2.3085	11.4983
	353	1	18.3953	2.3007	16.1015
	354	2	18.3953	6.8988	2.297
	355	1	18.3995	6.9052	6.8958
	356	1	18.3932	6.8935	11.5007
	357	2	18.4087	6.8998	16.0934
	358	2	18.4007	11.5029	2.3026
	359	1	18.4057	11.5013	6.9013
	360	2	18.3981	11.494	11.5061
	361	2	18.3971	11.5061	16.1013
	362	2	18.4062	16.1033	2.3024
	363	2	18.3913	16.0971	6.9041
	364	2	18.4041	16.1093	11.5091
	365	2	18.3916	16.0986	16.1092

Velocities

	1	0.0	0.0	0.0
	2	0.0	0.0	0.0
	3	0.0	0.0	0.0
	4	0.0	0.0	0.0
	5	0.0	0.0	0.0
	6	0.0	0.0	0.0
	7	0.0	0.0	0.0
	8	0.0	0.0	0.0
	9	0.0	0.0	0.0
	10	0.0	0.0	0.0
	11	0.0	0.0	0.0
	12	0.0	0.0	0.0
	13	0.0	0.0	0.0
	14	0.0	0.0	0.0
	15	0.0	0.0	0.0
	16	0.0	0.0	0.0
	17	0.0	0.0	0.0
	18	0.0	0.0	0.0
	19	0.0	0.0	0.0
	20	0.0	0.0	0.0
	21	0.0	0.0	0.0
	22	0.0	0.0	0.0
	23	0.0	0.0	0.0
	24	0.0	0.0	0.0
	25	0.0	0.0	0.0
	26	0.0	0.0	0.0
	27	0.0	0.0	0.0
	28	0.0	0.0	0.0
	29	0.0	0.0	0.0
	30	0.0	0.0	0.0
	31	0.0	0.0	0.0
	32	0.0	0.0	0.0
	33	0.0	0.0	0.0
	34	0.0	0.0	0.0
	35	0.0	0.0	0.0
	36	0.0	0.0	0.0
	37	0.0	0.0	0.0
	38	0.0	0.0	0.0
	39	0.0	0.0	0.0
	40	0.0	0.0	0.0
	41	0.0	0.0	0.0
	42	0.0	0.0	0.0
	43	0.0	0.0	0.0
	44	0.0	0.0	0.0
	45	0.0	0.0	0.0
	46	0.0	0.0	0.0
	47	0.0	0.0	0.0
	48	0.0	0.0	0.0
	49	0.0	0.0	0.0
	50	0.0	0.0	0.0
	51	0.0	0.0	0.0
	52	0.0	0.0	0.0
	53	0.0	0.0	0.0
	54	0.0	0.0	0.0
	55	0.0	0.0	0.0
	56	0.0	0.0	0.0
	57	0.0	0.0	0.0
	58	0.0	0.0	0.0
	59	0.0	0.0	0.0
	60	0.0	0.0	0.0
	61	0.0	0.0	0.0
	62	0.0	0.0	0.0
	63	0.0	0.0	0.0
	64	0.0	0.0	0.0
	65	0.0	0.0	0.0
	66	0.0	0.0	0.0
	67	0.0	0.0	0.0
	68	0.0	0.0	0.0
	69	0.0	0.0	0.0
	70	0.0	0.0	0.0
	71	0.0	0.0	0.0
	72	0.0	0.0	0.0
	73	0.0	0.0	0.0
	74	0.0	0.0	0.0
	75	0.0	0.0	0.0
	76	0.0	0.0	0.0
	77	0.0	0.0	0.0
	78	0.0	0.0	0.0
	79	0.0	0.0	0.0
	80	0.0	0.0	0.0
	81	0.0	0.0	0.0
	82	0.0	0.0	0.0
	83	0.0	0.0	0.0
	84	0.0	0.0	0.0
	85	0.0	0.0	0.0
	86	0.0	0.0	0.0
	87	0.0	0.0	0.0
	88	0.0	0.0	0.0
	89	0.0	0.0	0.0
	90	0.0	0.0	0.0
	91	0.0	0.0	0.0
	92	0.0	0.0	0.0
	93	0.0	0.0	0.0
	94	0.0	0.0	0.0
	95	0.0	0.0	0.0
	96	0.0	0.0	0.0
	97	0.0	0.0	0.0
	98	0.0	0.0	0.0
	99	0.0	0.0	0.0
	100	0.0	0.0	0.0
	101	0.0	0.0	0.0
	102	0.0	0.0	0.0
	103	0.0	0.0	0.0
	104	0.0	0.0	0.0
	105	0.0	0.0	0.0
	106	0.0	0.0	0.0
	107	0.0	0.0	0.0
	108	0.0	0.0	0.0
	109	0.0	0.0	0.0
	110	0.0	0.0	0.0
	111	0.0	0.0	0.0
	112	0.0	0.0	0.0
	113	0.0	0.0	0.0
	114	0.0	0.0	0.0
	115	0.0	0.0	0.0
	116	0.0	0.0	0.0
	117	0.0	0.0	0.0
	118	0.0	0.0	0.0
	119	0.0	0.0	0.0
	120	0.0	0.0	0.0
	121	0.0	0.0	0.0
	122	0.0	0.0	0.0
	123	0.0	0.0	0.0
	124	0.0	0.0	0.0
	125	0.0	0.0	0.0
	126	0.0	0.0	0.0
	127	0.0	0.0	0.0
	128	0.0	0.0	0.0
	129	0.0	0.0	0.0
	130	0.0	0.0	0.0
	131	0.0	0.0	0.0
	132	0.0	0.0	0.0
	133	0.0	0.0	0.0
	134	0.0	0.0	0.0
	135	0.0	0.0	0.0
	136	0.0	0.0	0.0
	137	0.0	0.0	0.0
	138	0.0	0.0	0.0
	139	0.0	0.0	0.0
	140	0.0	0.0	0.0
	141	0.0	0.0	0.0
	142	0.0	0.0	0.0
	143	0.0	0.0	0.0
	144	0.0	0.0	0.0
	145	0.0	0.0	0.0
	146	0.0	0.0	0.0
	147	0.0	0.0	0.0
	148	0.0	0.0	0.0
	149	0.0	0.0	0.0
	150	0.0	0.0	0.0
	151	0.0	0.0	0.0
	152	0.0	0.0	0.0
	153	0.0	0.0	0.0
	154	0.0	0.0	0.0
	155	0.0	0.0	0.0
	156	0.0	0.0	0.0
	157	0.0	0.0	0.0
	158	0.0	0.0	0.0
	159	0.0	0.0	0.0
	160	0.0	0.0	0.0
	161	0.0	0.0	0.0
	162	0.0	0.0	0.0
	163	0.0	0.0	0.0
	164	0.0	0.0	0.0
	165	0.0	0.0	0.0
	166	0.0	0.0	0.0
	167	0.0	0.0	0.0
	168	0.0	0.0	0.0
	169	0.0	0.0	0.0
	170	0.0	0.0	0.0
	171	0.0	0.0	0.0
	172	0.0	0.0	0.0
	173	0.0	0.0	0.0
	174	0.0	0.0	0.0
	175	0.0	0.0	0.0
	176	0.0	0.0	0.0
	177	0.0	0.0	0.0
	178	0.0	0.0	0.0
	179	0.0	0.0	0.0
	180	0.0	0.0	0.0
	181	0.0	0.0	0.0
	182	0.0	0.0	0.0
	183	0.0	0.0	0.0
	184	0.0	0.0	0.0
	185	0.0	0.0	0.0
	186	0.0	0.0	0.0
	187	0.0	0.0	0.0
	188	0.0	0.0	0.0
	189	0.0	0.0	0.0
	190	0.0	0.0	0.0
	191	0.0	0.0	0.0
	192	0.0	0.0	0.0
	193	0.0	0.0	0.0
	194	0.0	0.0	0.0
	195	0.0	0.0	0.0
	196	0.0	0.0	0.0
	197	0.0	0.0	0.0
	198	0.0	0.0	0.0
	199	0.0	0.0	0.0
	200	0.0	0.0	0.0
	201	0.0	0.0	0.0
	202	0.0	0.0	0.0
	203	0.0	0.0	0.0
	204	0.0	0.0	0.0
	205	0.0	0.0	0.0
	206	0.0	0.0	0.0
	207	0.0	0.0	0.0
	208	0.0	0.0	0.0
	209	0.0	0.0	0.0
	210	0.0	0.0	0.0
	211	0.0	0.0	0.0
	212	0.0	0.0	0.0
	213	0.0	0.0	0.0
	214	0.0	0.0	0.0
	215	0.0	0.0	0.0
	216	0.0	0.0	0.0
	217	0.0	0.0	0.0
	218	0.0	0.0	0.0
	219	0.0	0.0	0.0
	220	0.0	0.0	0.0
	221	0.0	0.0	0.0
	222	0.0	0.0	0.0
	223	0.0	0.0	0.0
	224	0.0	0.0	0.0
	225	0.0	0.0	0.0
	226	0.0	0.0	0.0
	227	0.0	0.0	0.0
	228	0.0	0.0	0.0
	229	0.0	0.0	0.0
	230	0.0	0.0	0.0
	231	0.0	0.0	0.0
	232	0.0	0.0	0.0
	233	0.0	0.0	0.0
	234	0.0	0.0	0.0
	235	0.0	0.0	0.0
	236	0.0	0.0	0.0
	237	0.0	0.0	0.0
	238	0.0	0.0	0.0
	239	0.0	0.0	0.0
	240	0.0	0.0	0.0
	241	0.0	0.0	0.0
	242	0.0	0.0	0.0
	243	0.0	0.0	0.0
	244	0.0	0.0	0.0
	245	0.0	0.0	0.0
	246	0.0	0.0	0.0
	247	0.0	0.0	0.0
	248	0.0	0.0	0.0
	249	0.0	0.0	0.0
	250	0.0	0.0	0.0
	251	0.0	0.0	0.0
	252	0.0	0.0	0.0
	253	0.0	0.0	0.0
	254	0.0	0.0	0.0
	255	0.0	0.0	0.0
	256	0.0	0.0	0.0
	257	0.0	0.0	0.0
	258	0.0	0.0	0.0
	259	0.0	0.0	0.0
	260	0.0	0.0	0.0
	261	0.0	0.0	0.0
	262	0.0	0.0	0.0
	263	0.0	0.0	0.0
	264	0.0	0.0	0.0
	265	0.0	0.0	0.0
	266	0.0	0.0	0.0
	267	0.0	0.0	0.0
	268	0.0	0.0	0.0
	269	0.0	0.0	0.0
	270	0.0	0.0	0.0
	271	0.0	0.0	0.0
	272	0.0	0.0	0.0
	273	0.0	0.0	0.0
	274	0.0	0.0	0.0
	275	0.0	0.0	0.0
	276	0.0	0.0	0.0
	277	0.0	0.0	0.0
	278	0.0	0.0	0.0
	279	0.0	0.0	0.0
	280	0.0	0.0	0.0
	281	0.0	0.0	0.0
	282	0.0	0.0	0.0
	283	0.0	0.0	0.0
	284	0.0	0.0	0.0
	285	0.0	0.0	0.0
	286	0.0	0.0	0.0
	287	0.0	0.0	0.0
	288	0.0	0.0	0.0
	289	0.0	0.0	0.0
	290	0.0	0.0	0.0
	291	0.0	0.0	0.0
	292	0.0	0.0	0.0
	293	0.0	0.0	0.0
	294	0.0	0.0	0.0
	295	0.0	0.0	0.0
	296	0.0	0.0	0.0
	297	0.0	0.0	0.0
	298	0.0	0.0	0.0
	299	0.0	0.0	0.0
	300	0.0	0.0	0.0
	301	0.0	0.0	0.0
	302	0.0	0.0	0.0
	303	0.0	0.0	0.0
	304	0.0	0.0	0.0
	305	0.0	0.0	0.0
	306	0.0	0.0	0.0
	307	0.0	0.0	0.0
	308	0.0	0.0	0.0
	309	0.0	0.0	0.0
	310	0.0	0.0	0.0
	311	0.0	0.0	0.0
	312	0.0	0.0	0.0
	313	0.0	0.0	0.0
	314	0.0	0.0	0.0
	315	0.0	0.0	0.0
	316	0.0	0.0	0.0
	317	0.0	0.0	0.0
	318	0.0	0.0	0.0
	319	0.0	0.0	0.0
	320	0.0	0.0	0.0
	321	0.0	0.0	0.0
	322	0.0	0.0	0.0
	323	0.0	0.0	0.0
	324	0.0	0.0	0.0
	325	0.0	0.0	0.0
	326	0.0	0.0	0.0
	327	0.0	0.0	0.0
	328	0.0	0.0	0.0
	329	0.0	0.0	0.0
	330	0.0	0.0	0.0
	331	0.0	0.0	0.0
	332	0.0	0.0	0.0
	333	0.0	0.0	0.0
	334	0.0	0.0	0.0
	335	0.0	0.0	0.0
	336	0.0	0.0	0.0
	337	0.0	0.0	0.0
	338	0.0	0.0	0.0
	339	0.0	0.0	0.0
	340	0.0	0.0	0.0
	341	0.0	0.0	0.0
	342	0.0	0.0	0.0
	343	0.0	0.0	0.0
	344	0.0	0.0	0.0
	345	0.0	0.0	0.0
	346	0.0	0.0	0.0
	347	0.0	0.0	0.0
	348	0.0	0.0	0.0
	349	0.0	0.0	0.0
	350	0.0	0.0	0.0
	351	0.0	0.0	0.0
	352	0.0	0.0	0.0
	353	0.0	0.0	0.0
	354	0.0	0.0	0.0
	355	0.0	0.0	0.0
	356	0.0	0.0	0.0
	357	0.0	0.0	0.0
	358	0.0	0.0	0.0
	359	0.0	0.0	0.0
	360	0.0	0.0	0.0
	361	0.0	0.0	0.0
	362	0.0	0.0	0.0
	363	0.0	0.0	0.0
	364	0.0	0.0	0.0
	365	-0.0	-0.0	-0.0

