Nickle Copper Simulation

2457 	atoms
0 	bonds
0 	angles
0 	dihedrals
0 	impropers

2	atom types
0	bond types
0	angle types
0	dihedral types
0	improper types

-0.02	36.82	xlo xhi
-0.02	36.82	ylo yhi
-0.02	36.82	zlo zhi

Atoms

	1	2	0.0051	-0.0089	-0.0047
	2	2	-0.0061	0.0019	4.6059
	3	1	0.0069	0.0085	9.2092
	4	1	-0.0059	0.0057	13.806
	5	1	0.0067	0.0079	18.3903
	6	2	0.0071	-0.0017	23.0026
	7	2	-0.0047	0.0027	27.6005
	8	2	-0.0052	0.0083	32.1968
	9	2	0.0092	0.0048	36.8046
	10	1	-0.0076	4.609	-0.0043
	11	2	-0.0043	4.6056	4.6042
	12	2	0.0	4.5966	9.2058
	13	2	0.0053	4.6031	13.7908
	14	1	0.0073	4.5937	18.4032
	15	1	-0.0014	4.604	22.9913
	16	2	0.006	4.6076	27.591
	17	1	0.0002	4.6014	32.1916
	18	2	0.0058	4.608	36.7968
	19	1	0.0005	9.2002	-0.0012
	20	2	-0.0071	9.2093	4.6062
	21	2	0.009	9.2099	9.192
	22	2	-0.0057	9.2043	13.8008
	23	2	0.0007	9.1908	18.4085
	24	2	-0.0075	9.1906	23.0081
	25	1	-0.0037	9.2032	27.6073
	26	2	-0.0086	9.2064	32.1972
	27	2	-0.0035	9.2025	36.8032
	28	2	0.0005	13.7912	0.0029
	29	2	0.0069	13.8072	4.6066
	30	1	0.0094	13.8078	9.1939
	31	2	0.0056	13.7922	13.8091
	32	2	0.0072	13.8025	18.3916
	33	2	0.0055	13.8004	22.994
	34	2	-0.0063	13.8072	27.6031
	35	1	-0.0091	13.7928	32.1972
	36	1	0.0038	13.8098	36.8025
	37	2	-0.0045	18.3927	0.0015
	38	2	-0.0045	18.398	4.6005
	39	2	-0.0092	18.4066	9.2019
	40	2	0.0087	18.4008	13.8064
	41	1	-0.0023	18.4001	18.3936
	42	1	0.0085	18.4099	23.0099
	43	2	0.0013	18.3928	27.5903
	44	1	-0.0051	18.3952	32.1992
	45	1	0.0052	18.4013	36.7986
	46	2	0.0044	23.0071	-0.003
	47	2	0.0079	22.9955	4.6021
	48	1	0.0072	22.9914	9.1948
	49	1	0.0013	23.0056	13.81
	50	2	-0.0023	23.005	18.4023
	51	1	0.0044	22.995	23.0007
	52	1	-0.0064	23.0096	27.5991
	53	2	-0.0062	23.0061	32.2001
	54	2	-0.0039	23.0046	36.8007
	55	2	0.0054	27.5947	-0.0006
	56	2	0.0034	27.593	4.6084
	57	2	0.0058	27.5957	9.2039
	58	2	-0.0065	27.5935	13.8059
	59	2	0.001	27.5985	18.3947
	60	1	-0.0098	27.5957	23.0074
	61	1	-0.0089	27.5994	27.5967
	62	2	0.0071	27.5973	32.1978
	63	2	0.0027	27.6032	36.8055
	64	1	-0.0034	32.1941	-0.0084
	65	2	-0.0022	32.201	4.6008
	66	2	0.003	32.199	9.2056
	67	1	0.0063	32.194	13.8006
	68	2	0.0043	32.1928	18.3978
	69	2	-0.0064	32.2086	22.9908
	70	2	0.0013	32.2022	27.6052
	71	2	-0.0043	32.2099	32.204
	72	2	0.0053	32.1947	36.8045
	73	1	-0.0068	36.7981	0.0066
	74	2	0.01	36.8015	4.595
	75	2	-0.0037	36.8097	9.1951
	76	2	0.0046	36.8048	13.7928
	77	2	0.0004	36.7992	18.3979
	78	2	-0.0084	36.8099	23.0021
	79	2	0.0012	36.8064	27.5992
	80	2	-0.0003	36.7902	32.1996
	81	2	0.0017	36.7912	36.7942
	82	2	4.6075	-0.0089	0.0082
	83	2	4.6096	0.0048	4.5974
	84	2	4.595	-0.0081	9.2017
	85	1	4.591	-0.0026	13.7946
	86	1	4.6028	-0.0015	18.3976
	87	2	4.6068	-0.0031	22.9908
	88	2	4.5986	-0.0009	27.6059
	89	1	4.6081	-0.0018	32.207
	90	2	4.5965	-0.003	36.7911
	91	2	4.5979	4.5934	0.0004
	92	2	4.5952	4.6042	4.6022
	93	2	4.603	4.601	9.2065
	94	2	4.5982	4.5992	13.8083
	95	1	4.6039	4.5927	18.4082
	96	2	4.5935	4.6041	23.0089
	97	2	4.6076	4.606	27.5926
	98	2	4.6016	4.6038	32.2068
	99	2	4.6039	4.5952	36.7906
	100	1	4.6088	9.2017	-0.002
	101	1	4.5956	9.2016	4.5984
	102	2	4.592	9.2012	9.2055
	103	2	4.5987	9.1947	13.7912
	104	2	4.6038	9.2064	18.4088
	105	2	4.6089	9.193	22.997
	106	1	4.608	9.194	27.5973
	107	2	4.6065	9.1914	32.1967
	108	2	4.6044	9.2051	36.8058
	109	1	4.6016	13.8002	0.0037
	110	2	4.6085	13.8029	4.5906
	111	1	4.6061	13.7942	9.1965
	112	2	4.6046	13.8055	13.8012
	113	2	4.6045	13.8046	18.397
	114	1	4.5935	13.8051	22.9984
	115	2	4.5964	13.8019	27.5983
	116	2	4.5985	13.7979	32.1935
	117	2	4.5919	13.8084	36.8046
	118	2	4.605	18.4028	-0.0087
	119	2	4.5932	18.4027	4.6017
	120	2	4.6049	18.4035	9.2054
	121	2	4.6044	18.4058	13.8003
	122	1	4.5916	18.4017	18.4
	123	2	4.5911	18.4086	23.0077
	124	2	4.5951	18.3911	27.5951
	125	1	4.6065	18.4058	32.2028
	126	2	4.6037	18.3955	36.8074
	127	2	4.5901	22.9941	-0.0079
	128	2	4.5962	23.0017	4.6088
	129	1	4.6084	22.992	9.1934
	130	2	4.5914	22.9933	13.7987
	131	2	4.6095	22.9914	18.4083
	132	2	4.5954	23.008	22.9916
	133	1	4.6031	22.9939	27.5936
	134	2	4.6007	23.0041	32.2026
	135	2	4.6036	23.0059	36.7963
	136	1	4.5919	27.5925	-0.0084
	137	1	4.5952	27.6096	4.5973
	138	1	4.5911	27.6072	9.2041
	139	2	4.5944	27.5993	13.7976
	140	2	4.6098	27.6094	18.3973
	141	2	4.6079	27.6075	23.0093
	142	2	4.5955	27.597	27.6022
	143	1	4.6097	27.6075	32.2047
	144	2	4.599	27.6077	36.7907
	145	2	4.5985	32.1908	-0.008
	146	2	4.6093	32.2025	4.6008
	147	2	4.6041	32.2081	9.1903
	148	1	4.5901	32.1922	13.801
	149	2	4.6096	32.1923	18.3924
	150	1	4.6072	32.1931	22.9939
	151	2	4.6015	32.1993	27.6004
	152	1	4.6028	32.2025	32.2003
	153	2	4.5957	32.1934	36.7905
	154	1	4.6097	36.7971	-0.0083
	155	2	4.5956	36.8055	4.5918
	156	1	4.6069	36.7973	9.2084
	157	2	4.5966	36.8061	13.7946
	158	2	4.5947	36.795	18.4011
	159	1	4.5929	36.8042	23.0096
	160	1	4.6038	36.8095	27.6085
	161	1	4.5922	36.8099	32.1938
	162	2	4.604	36.8009	36.7911
	163	2	9.206	0.0058	0.0009
	164	1	9.1939	-0.0075	4.6014
	165	1	9.1981	0.0079	9.1979
	166	1	9.2064	-0.0057	13.8005
	167	2	9.1992	0.0082	18.4019
	168	1	9.2087	0.0021	22.9994
	169	2	9.1937	0.0033	27.5975
	170	1	9.2017	-0.0038	32.2097
	171	1	9.2011	-0.0022	36.7936
	172	2	9.1951	4.6064	-0.0017
	173	2	9.194	4.6061	4.6
	174	2	9.2006	4.6039	9.2062
	175	1	9.1941	4.5993	13.7914
	176	1	9.1981	4.5933	18.4087
	177	2	9.1907	4.5908	23.0037
	178	1	9.2018	4.5977	27.6012
	179	2	9.2078	4.594	32.1917
	180	1	9.206	4.5906	36.7957
	181	1	9.1902	9.1915	0.004
	182	2	9.1966	9.1983	4.604
	183	1	9.2036	9.1997	9.1914
	184	1	9.1984	9.1902	13.8003
	185	1	9.1911	9.1914	18.4035
	186	2	9.1994	9.1986	22.9932
	187	1	9.197	9.1947	27.6099
	188	2	9.2037	9.194	32.1939
	189	1	9.2019	9.2008	36.8064
	190	2	9.2032	13.7978	0.0029
	191	1	9.1905	13.8064	4.6024
	192	2	9.2037	13.7988	9.2038
	193	2	9.1958	13.8034	13.8055
	194	2	9.1914	13.7947	18.3917
	195	2	9.1975	13.8034	23.009
	196	2	9.2001	13.8068	27.5962
	197	1	9.2063	13.8076	32.2029
	198	2	9.2072	13.804	36.8034
	199	2	9.1995	18.4079	0.0041
	200	2	9.1978	18.4018	4.5999
	201	2	9.1933	18.4001	9.1985
	202	2	9.1973	18.404	13.794
	203	1	9.1906	18.4078	18.4074
	204	1	9.2019	18.4093	23.0027
	205	1	9.2068	18.3979	27.5977
	206	2	9.207	18.3951	32.2008
	207	2	9.2089	18.3959	36.7979
	208	2	9.2014	23.001	0.0039
	209	2	9.1941	22.9926	4.5955
	210	2	9.21	23.007	9.1979
	211	1	9.1977	22.9996	13.7996
	212	2	9.2079	23.0067	18.4005
	213	2	9.1906	23.0049	22.9985
	214	1	9.1956	22.9962	27.5962
	215	2	9.2008	23.0072	32.2054
	216	2	9.2015	22.998	36.8016
	217	1	9.1963	27.5955	-0.0076
	218	2	9.1919	27.6019	4.5959
	219	2	9.1964	27.5921	9.2033
	220	2	9.1955	27.5961	13.7934
	221	1	9.2063	27.5911	18.4097
	222	1	9.1976	27.6044	22.9934
	223	1	9.1962	27.609	27.6012
	224	2	9.2018	27.5958	32.191
	225	1	9.2009	27.5994	36.803
	226	2	9.2056	32.1995	-0.0095
	227	2	9.1942	32.2066	4.5986
	228	1	9.1971	32.208	9.2028
	229	2	9.2036	32.2066	13.7945
	230	2	9.198	32.2002	18.3943
	231	2	9.2011	32.1901	23.0027
	232	2	9.1946	32.2054	27.5969
	233	2	9.1935	32.2046	32.2084
	234	1	9.2044	32.1908	36.793
	235	2	9.2025	36.795	-0.0086
	236	2	9.1998	36.8016	4.5914
	237	1	9.1949	36.7931	9.2018
	238	2	9.1988	36.8	13.7901
	239	1	9.2063	36.8009	18.4088
	240	2	9.1911	36.8092	23.0056
	241	1	9.2016	36.8041	27.601
	242	2	9.202	36.7936	32.1981
	243	2	9.1946	36.7918	36.8024
	244	2	13.7946	-0.0083	-0.0074
	245	1	13.8073	0.0053	4.6042
	246	2	13.8009	0.0006	9.1994
	247	2	13.803	-0.0037	13.7996
	248	1	13.8059	-0.0095	18.4048
	249	1	13.8077	0.0035	22.9952
	250	2	13.7925	-0.0001	27.6013
	251	2	13.8025	-0.007	32.2045
	252	2	13.8037	-0.0048	36.7929
	253	2	13.8054	4.6055	0.0018
	254	2	13.8044	4.5936	4.6094
	255	2	13.7958	4.5949	9.2031
	256	2	13.7928	4.5975	13.7953
	257	2	13.7977	4.6011	18.3974
	258	2	13.7911	4.5984	23.0012
	259	1	13.8004	4.5938	27.6042
	260	1	13.7916	4.5949	32.2075
	261	1	13.8077	4.6031	36.7906
	262	2	13.8085	9.2057	-0.0073
	263	2	13.7908	9.2075	4.5978
	264	2	13.7918	9.2	9.2094
	265	2	13.8034	9.1961	13.7999
	266	1	13.8049	9.2024	18.4092
	267	2	13.8051	9.1982	23.0091
	268	2	13.8081	9.1918	27.6064
	269	2	13.8009	9.1908	32.2039
	270	2	13.806	9.2045	36.7957
	271	2	13.7991	13.8095	0.0079
	272	2	13.8005	13.8043	4.6065
	273	2	13.7914	13.8032	9.2084
	274	2	13.7908	13.7971	13.7971
	275	1	13.7982	13.7914	18.4016
	276	2	13.8019	13.8043	22.9997
	277	2	13.794	13.791	27.6011
	278	2	13.8032	13.8012	32.2056
	279	2	13.8058	13.795	36.8017
	280	2	13.8071	18.4025	-0.0036
	281	2	13.8049	18.4015	4.5923
	282	2	13.8022	18.3953	9.1993
	283	2	13.7957	18.3914	13.7974
	284	2	13.8058	18.3951	18.4096
	285	2	13.7922	18.395	22.9932
	286	2	13.7997	18.3945	27.6003
	287	2	13.8008	18.3967	32.1914
	288	2	13.7907	18.4052	36.8052
	289	2	13.7957	23.0043	-0.0067
	290	2	13.8029	23.007	4.5971
	291	2	13.7991	22.9991	9.198
	292	1	13.805	23.0037	13.8064
	293	2	13.7966	23.0065	18.4015
	294	1	13.8097	23.0004	22.9906
	295	2	13.7992	23.0007	27.5986
	296	2	13.795	22.9993	32.2026
	297	2	13.8097	23.0069	36.8024
	298	2	13.7986	27.5929	-0.0053
	299	1	13.8095	27.5947	4.595
	300	2	13.7902	27.6092	9.2011
	301	2	13.8019	27.6033	13.8022
	302	2	13.7962	27.5928	18.3925
	303	2	13.7931	27.6011	23.0013
	304	2	13.8024	27.6087	27.6015
	305	2	13.7989	27.5937	32.2056
	306	2	13.7969	27.6033	36.795
	307	2	13.8098	32.2027	0.0064
	308	1	13.8004	32.1992	4.5998
	309	1	13.7902	32.191	9.2053
	310	1	13.7945	32.1921	13.7913
	311	2	13.7934	32.2066	18.3911
	312	2	13.81	32.2043	22.9949
	313	2	13.8049	32.2062	27.5944
	314	2	13.8035	32.2037	32.2046
	315	1	13.8003	32.2033	36.7965
	316	2	13.8098	36.7984	-0.0086
	317	2	13.8099	36.7948	4.5913
	318	2	13.8014	36.7976	9.1983
	319	1	13.807	36.7907	13.794
	320	1	13.8095	36.8017	18.397
	321	2	13.8001	36.8003	22.9972
	322	2	13.8012	36.8073	27.5937
	323	2	13.7938	36.8023	32.208
	324	2	13.8055	36.7995	36.7957
	325	2	18.4026	0.0099	-0.0092
	326	2	18.3956	-0.0063	4.6074
	327	2	18.4099	-0.0067	9.1961
	328	2	18.4006	-0.0062	13.8041
	329	1	18.4084	-0.0065	18.3958
	330	2	18.4081	-0.0062	22.9985
	331	2	18.4071	0.0064	27.5977
	332	2	18.4077	-0.0093	32.2045
	333	1	18.3983	-0.006	36.8045
	334	2	18.4006	4.6078	-0.0076
	335	2	18.3921	4.6001	4.5988
	336	2	18.3936	4.6077	9.1986
	337	2	18.41	4.603	13.8077
	338	2	18.392	4.6011	18.402
	339	1	18.4085	4.6018	22.9961
	340	1	18.4042	4.6068	27.5999
	341	1	18.3921	4.593	32.2026
	342	1	18.4058	4.597	36.799
	343	2	18.3949	9.2084	-0.0058
	344	1	18.4043	9.2066	4.6081
	345	1	18.4075	9.196	9.196
	346	1	18.4079	9.1922	13.802
	347	2	18.4055	9.201	18.4071
	348	2	18.391	9.2067	23.0019
	349	1	18.3963	9.1983	27.5962
	350	1	18.3912	9.2017	32.2036
	351	1	18.3976	9.202	36.798
	352	2	18.4073	13.7937	-0.0086
	353	2	18.3989	13.8069	4.6095
	354	1	18.4037	13.806	9.205
	355	2	18.3985	13.7971	13.8096
	356	2	18.4051	13.8077	18.4038
	357	2	18.3931	13.8032	23.0082
	358	2	18.4023	13.7901	27.5952
	359	2	18.3919	13.809	32.1921
	360	1	18.4072	13.7987	36.8093
	361	2	18.4059	18.4029	0.0065
	362	2	18.4019	18.4043	4.5916
	363	2	18.4035	18.3957	9.1933
	364	2	18.3912	18.3935	13.8064
	365	2	18.4098	18.4052	18.4073
	366	2	18.4087	18.3997	23.0053
	367	2	18.3972	18.39	27.6054
	368	1	18.3964	18.3907	32.1936
	369	2	18.3974	18.408	36.7957
	370	1	18.3952	22.9969	-0.0044
	371	2	18.4023	23.0021	4.6089
	372	2	18.3985	22.9922	9.2033
	373	1	18.4022	22.9949	13.8078
	374	1	18.3942	22.9962	18.3949
	375	2	18.4047	22.999	23.0041
	376	1	18.4072	22.9999	27.6097
	377	1	18.4079	23.0077	32.1932
	378	2	18.3931	23.0097	36.8048
	379	2	18.392	27.5911	-0.0052
	380	1	18.4014	27.5936	4.6013
	381	1	18.4054	27.5999	9.2062
	382	1	18.3952	27.6011	13.8069
	383	2	18.3911	27.5949	18.4049
	384	2	18.3997	27.5995	22.9919
	385	2	18.4099	27.6097	27.5989
	386	1	18.3958	27.5981	32.2058
	387	1	18.3934	27.5924	36.8086
	388	2	18.3917	32.1927	-0.0059
	389	2	18.4024	32.1928	4.6078
	390	1	18.4066	32.1948	9.1916
	391	2	18.4085	32.1943	13.797
	392	1	18.4036	32.2056	18.4071
	393	2	18.4073	32.2063	22.9946
	394	2	18.4043	32.1911	27.6087
	395	1	18.4012	32.2092	32.2094
	396	1	18.4092	32.2088	36.7985
	397	1	18.3909	36.7956	-0.0069
	398	2	18.4002	36.807	4.6099
	399	2	18.3916	36.7937	9.2024
	400	2	18.4033	36.8006	13.7918
	401	1	18.3911	36.7979	18.394
	402	2	18.3907	36.7997	22.998
	403	2	18.3956	36.7929	27.6046
	404	2	18.3928	36.8055	32.1943
	405	2	18.3958	36.7912	36.7973
	406	1	22.9991	0.0019	0.0073
	407	2	22.9912	-0.0029	4.6073
	408	2	22.9942	0.0044	9.1902
	409	2	22.9969	-0.0094	13.7966
	410	2	23.0017	-0.0081	18.3931
	411	1	23.0067	-0.0023	22.995
	412	1	22.9997	0.0064	27.5964
	413	2	23.0034	-0.0088	32.1974
	414	2	22.9925	-0.0073	36.7966
	415	1	23.0088	4.6023	-0.0096
	416	2	22.9943	4.5993	4.6068
	417	1	23.0052	4.5992	9.2026
	418	2	23.002	4.6019	13.8098
	419	2	22.9996	4.6082	18.3974
	420	2	22.9957	4.6057	22.9926
	421	2	23.0077	4.5935	27.5921
	422	2	23.0019	4.5924	32.1931
	423	2	22.9985	4.6002	36.801
	424	2	22.9908	9.1988	0.0027
	425	2	22.9959	9.2069	4.5904
	426	2	22.9964	9.2076	9.2044
	427	2	23.0019	9.1994	13.7958
	428	2	22.9945	9.1967	18.4066
	429	2	23.0081	9.195	22.9928
	430	2	23.0069	9.1918	27.5938
	431	2	23.0044	9.1945	32.198
	432	1	22.9938	9.2094	36.7939
	433	2	22.9936	13.8086	-0.0092
	434	1	23.002	13.7901	4.5946
	435	2	22.9921	13.7936	9.1956
	436	2	22.9982	13.8014	13.7931
	437	2	23.0013	13.804	18.3945
	438	2	23.0011	13.7922	23.0058
	439	1	22.997	13.8033	27.5929
	440	1	23.0095	13.7926	32.2023
	441	2	23.0064	13.8071	36.7978
	442	2	23.002	18.4095	0.0093
	443	2	23.004	18.3943	4.5906
	444	2	23.0011	18.3963	9.1952
	445	2	22.9903	18.4093	13.8044
	446	2	22.9947	18.3974	18.3993
	447	1	23.0083	18.4098	22.9919
	448	1	23.0006	18.3997	27.5917
	449	2	22.9994	18.3911	32.2085
	450	1	23.0092	18.4098	36.7954
	451	1	22.9949	22.9928	-0.0008
	452	1	22.992	23.0031	4.6011
	453	2	22.9963	22.9983	9.1946
	454	2	22.9945	22.9938	13.8027
	455	2	23.0057	23.0009	18.3957
	456	2	23.0037	22.9906	23.0009
	457	1	22.9902	22.9954	27.5913
	458	2	22.9939	22.9939	32.1989
	459	2	23.0003	22.9936	36.8023
	460	2	23.0098	27.5965	-0.0098
	461	2	23.0038	27.5954	4.5956
	462	1	23.002	27.6051	9.1912
	463	2	22.9968	27.6046	13.7969
	464	1	23.0071	27.6009	18.3995
	465	2	23.0029	27.5909	22.998
	466	2	22.9908	27.5919	27.594
	467	2	22.9951	27.5995	32.2056
	468	2	23.005	27.6001	36.8002
	469	2	23.0086	32.193	0.0025
	470	1	22.9975	32.1927	4.5993
	471	2	22.991	32.1919	9.2024
	472	2	22.9932	32.2093	13.7912
	473	2	22.9974	32.2029	18.3945
	474	2	22.9995	32.1902	22.9923
	475	1	23.0051	32.2045	27.6006
	476	2	22.9947	32.2045	32.2089
	477	2	22.9957	32.1968	36.8038
	478	2	22.9981	36.7928	0.0033
	479	2	22.9957	36.801	4.6002
	480	1	23.0024	36.7995	9.2062
	481	1	22.9988	36.7961	13.7962
	482	1	23.0087	36.8031	18.3934
	483	2	23.0043	36.805	22.9921
	484	2	22.9962	36.801	27.5954
	485	2	22.9959	36.7939	32.1954
	486	2	22.9902	36.7933	36.7942
	487	2	27.5934	0.0051	0.0086
	488	2	27.6096	-0.0048	4.5987
	489	1	27.594	0.0085	9.2098
	490	2	27.5979	-0.005	13.81
	491	1	27.6067	0.0073	18.3984
	492	1	27.6079	-0.0016	22.9938
	493	1	27.6077	-0.0084	27.597
	494	1	27.5972	0.0077	32.1949
	495	2	27.6065	-0.0079	36.8036
	496	2	27.5946	4.6022	0.0014
	497	2	27.6054	4.6072	4.5967
	498	2	27.5948	4.5999	9.2085
	499	1	27.5962	4.604	13.8043
	500	2	27.596	4.6029	18.3973
	501	1	27.5981	4.5909	22.9919
	502	1	27.5925	4.5987	27.5958
	503	2	27.5951	4.5973	32.2096
	504	2	27.5926	4.5926	36.7935
	505	1	27.6078	9.198	-0.009
	506	2	27.5908	9.2086	4.5918
	507	2	27.6058	9.2072	9.2067
	508	1	27.6079	9.2065	13.7917
	509	1	27.5922	9.1968	18.4017
	510	2	27.604	9.1904	22.9945
	511	1	27.5951	9.1976	27.6059
	512	2	27.5936	9.2092	32.2
	513	2	27.6065	9.1943	36.7909
	514	1	27.5997	13.7928	0.001
	515	2	27.6049	13.7952	4.6049
	516	2	27.6082	13.8042	9.2045
	517	2	27.6094	13.8012	13.7949
	518	1	27.6088	13.7956	18.4089
	519	2	27.5998	13.7946	23.001
	520	2	27.5944	13.7944	27.6078
	521	2	27.6048	13.799	32.193
	522	2	27.5914	13.8007	36.7967
	523	2	27.6059	18.4097	-0.0085
	524	2	27.6068	18.4081	4.6038
	525	1	27.5987	18.4088	9.2054
	526	2	27.6073	18.3952	13.8033
	527	2	27.609	18.3921	18.3927
	528	1	27.5934	18.4084	23.008
	529	2	27.5912	18.3994	27.6071
	530	2	27.6015	18.3939	32.1963
	531	2	27.5969	18.3981	36.7938
	532	1	27.5922	22.9945	-0.0051
	533	1	27.6086	22.992	4.598
	534	2	27.603	23.0087	9.2026
	535	1	27.5998	23.0051	13.8068
	536	1	27.5947	22.9904	18.3939
	537	2	27.6005	23.0061	22.9908
	538	1	27.5957	22.9977	27.6013
	539	2	27.5925	23.0044	32.1909
	540	2	27.5965	23.0019	36.7937
	541	2	27.5964	27.605	0.0008
	542	2	27.6034	27.5924	4.6085
	543	2	27.604	27.6001	9.1917
	544	1	27.6006	27.5947	13.7981
	545	2	27.5997	27.6017	18.405
	546	1	27.6069	27.6038	22.9969
	547	2	27.6058	27.6099	27.598
	548	2	27.5918	27.5962	32.1971
	549	2	27.5964	27.5974	36.8096
	550	1	27.6064	32.2026	0.0078
	551	2	27.5905	32.2004	4.5922
	552	2	27.5959	32.2019	9.1966
	553	1	27.6027	32.1982	13.7965
	554	2	27.5979	32.2058	18.3986
	555	1	27.5972	32.195	23.0093
	556	1	27.5961	32.1947	27.6081
	557	2	27.5966	32.1909	32.2066
	558	2	27.593	32.2007	36.7959
	559	2	27.592	36.7962	-0.0042
	560	2	27.6008	36.8065	4.6043
	561	1	27.6048	36.7994	9.1939
	562	1	27.5914	36.8097	13.798
	563	2	27.6001	36.7967	18.3938
	564	2	27.5921	36.7926	23.0049
	565	2	27.5955	36.8068	27.6085
	566	2	27.6035	36.7962	32.1919
	567	2	27.6008	36.8077	36.8004
	568	2	32.1964	-0.0087	0.0048
	569	2	32.2008	0.0044	4.5987
	570	2	32.2039	-0.0034	9.1947
	571	1	32.2009	0.0069	13.7939
	572	1	32.2038	0.0076	18.4032
	573	2	32.1937	-0.0051	22.9945
	574	1	32.1994	0.0045	27.5923
	575	2	32.2069	-0.0078	32.1958
	576	2	32.2044	0.0065	36.8024
	577	1	32.19	4.5984	0.0097
	578	2	32.2084	4.5997	4.5944
	579	2	32.1968	4.5924	9.1907
	580	2	32.1966	4.5986	13.8042
	581	1	32.2032	4.5978	18.3915
	582	2	32.1966	4.6033	22.9933
	583	1	32.2049	4.5905	27.5926
	584	2	32.2085	4.5935	32.2091
	585	2	32.197	4.6019	36.7984
	586	2	32.2052	9.1959	-0.0076
	587	2	32.1955	9.2025	4.6007
	588	2	32.2035	9.1977	9.1971
	589	2	32.2096	9.1955	13.8068
	590	2	32.2086	9.1921	18.4047
	591	2	32.1951	9.1991	23.0038
	592	2	32.208	9.1959	27.5919
	593	1	32.2043	9.2074	32.1964
	594	2	32.2011	9.1954	36.7952
	595	2	32.2013	13.7952	-0.0037
	596	2	32.1957	13.7911	4.5939
	597	2	32.1968	13.7907	9.2
	598	2	32.2097	13.7963	13.7928
	599	2	32.1943	13.7933	18.3949
	600	2	32.1906	13.7942	22.991
	601	2	32.2044	13.8004	27.591
	602	2	32.1909	13.7952	32.2065
	603	1	32.2076	13.7918	36.8012
	604	2	32.1987	18.407	-0.0035
	605	2	32.2078	18.396	4.5973
	606	2	32.1983	18.3972	9.196
	607	2	32.2092	18.4082	13.7922
	608	2	32.1974	18.406	18.4021
	609	2	32.196	18.409	23.0035
	610	1	32.204	18.4016	27.6033
	611	2	32.1995	18.3984	32.2022
	612	2	32.1988	18.4056	36.7975
	613	2	32.1907	22.9933	-0.0079
	614	1	32.2011	22.9914	4.5956
	615	2	32.2067	22.995	9.1905
	616	2	32.2004	23.0095	13.8089
	617	1	32.1996	23.0085	18.3952
	618	1	32.1983	22.9991	22.9901
	619	2	32.1945	23.0029	27.6076
	620	1	32.2063	23.0054	32.1953
	621	2	32.196	23.0081	36.7932
	622	1	32.2066	27.6075	0.0076
	623	2	32.1965	27.5961	4.6092
	624	1	32.1927	27.6085	9.1904
	625	2	32.1937	27.6078	13.7989
	626	1	32.2063	27.5995	18.3922
	627	2	32.2019	27.5986	23.006
	628	2	32.2095	27.6091	27.5984
	629	2	32.1965	27.5982	32.2015
	630	1	32.1923	27.5913	36.7964
	631	1	32.21	32.197	-0.0041
	632	2	32.2035	32.197	4.5946
	633	2	32.2059	32.2052	9.2094
	634	1	32.2063	32.2088	13.7974
	635	1	32.1903	32.2027	18.3918
	636	1	32.1963	32.19	22.9947
	637	2	32.1917	32.2084	27.6048
	638	2	32.1948	32.2034	32.1933
	639	2	32.1913	32.1968	36.8031
	640	2	32.1973	36.8066	0.0095
	641	1	32.1906	36.8064	4.6043
	642	1	32.2074	36.8005	9.1983
	643	1	32.2064	36.8066	13.7959
	644	2	32.191	36.7977	18.4035
	645	2	32.2078	36.8067	22.991
	646	2	32.1909	36.7968	27.5979
	647	2	32.2078	36.8041	32.196
	648	1	32.1996	36.7922	36.8019
	649	2	36.7964	0.0059	0.0018
	650	2	36.7963	-0.0054	4.6009
	651	2	36.8009	-0.0056	9.2032
	652	1	36.8052	-0.0001	13.8045
	653	2	36.7916	-0.009	18.4001
	654	2	36.809	-0.004	22.9954
	655	2	36.7994	0.002	27.6097
	656	1	36.8021	0.0059	32.1996
	657	2	36.8013	0.0069	36.7984
	658	1	36.7981	4.6046	0.0001
	659	2	36.8059	4.6033	4.6009
	660	2	36.8035	4.6007	9.1994
	661	2	36.7991	4.5945	13.8033
	662	2	36.8046	4.5979	18.4005
	663	2	36.7983	4.5901	22.9976
	664	2	36.8004	4.592	27.6018
	665	1	36.802	4.6065	32.1908
	666	2	36.809	4.5929	36.8032
	667	2	36.8041	9.1938	-0.0067
	668	2	36.8043	9.1931	4.598
	669	2	36.7976	9.1933	9.2088
	670	2	36.7993	9.204	13.8074
	671	2	36.7936	9.2052	18.4089
	672	2	36.7988	9.2057	23.0058
	673	2	36.8066	9.203	27.6054
	674	2	36.8003	9.1995	32.2025
	675	1	36.7917	9.1912	36.7988
	676	1	36.8083	13.7903	-0.007
	677	2	36.8021	13.7929	4.6099
	678	2	36.792	13.806	9.2055
	679	1	36.7949	13.8066	13.7954
	680	2	36.7985	13.8026	18.4023
	681	1	36.8042	13.8025	23.0061
	682	2	36.8036	13.7946	27.601
	683	2	36.79	13.803	32.2097
	684	1	36.8064	13.7927	36.8071
	685	2	36.81	18.4078	-0.0004
	686	1	36.8087	18.4008	4.5903
	687	2	36.8039	18.4077	9.2074
	688	2	36.8056	18.3904	13.8018
	689	2	36.8079	18.4075	18.3989
	690	2	36.8094	18.4085	22.9991
	691	2	36.7909	18.405	27.5984
	692	2	36.8021	18.3958	32.1971
	693	2	36.8031	18.4035	36.7941
	694	2	36.8028	22.9922	0.006
	695	1	36.7949	23.0073	4.5998
	696	2	36.7913	22.9957	9.1932
	697	1	36.7924	23.0035	13.8038
	698	2	36.7949	22.995	18.3978
	699	2	36.793	22.9976	22.9923
	700	1	36.7985	23.0067	27.6012
	701	2	36.8013	23.0026	32.1974
	702	2	36.8097	23.0089	36.8078
	703	2	36.7922	27.595	-0.0024
	704	2	36.8064	27.6086	4.6001
	705	2	36.7994	27.5907	9.1963
	706	2	36.7944	27.6097	13.7982
	707	2	36.804	27.6016	18.4095
	708	2	36.8029	27.5933	23.0014
	709	1	36.8027	27.59	27.5942
	710	2	36.793	27.5951	32.197
	711	2	36.804	27.5902	36.8004
	712	2	36.801	32.2043	0.0017
	713	2	36.7989	32.1991	4.607
	714	2	36.8014	32.1963	9.2073
	715	2	36.8081	32.2035	13.8024
	716	2	36.8068	32.1997	18.405
	717	2	36.8036	32.1905	22.9982
	718	2	36.8097	32.205	27.5994
	719	2	36.807	32.2097	32.1993
	720	2	36.81	32.202	36.8092
	721	2	36.8092	36.7968	0.0093
	722	1	36.7978	36.8076	4.5923
	723	2	36.7974	36.794	9.1941
	724	2	36.8074	36.7962	13.8067
	725	1	36.7974	36.8058	18.4008
	726	1	36.7992	36.7921	23.0007
	727	2	36.7984	36.8057	27.5977
	728	1	36.8037	36.8086	32.1978
	729	2	36.8038	36.7917	36.7938
	730	2	2.3084	2.3065	0.0044
	731	2	2.3095	2.2997	4.6095
	732	1	2.2939	2.2916	9.1929
	733	1	2.2999	2.2989	13.7932
	734	2	2.3099	2.3044	18.3953
	735	1	2.2901	2.3052	23.0025
	736	2	2.2922	2.2948	27.5962
	737	2	2.3093	2.2996	32.2029
	738	2	2.2984	2.3088	36.7935
	739	1	2.2997	6.9095	0.0004
	740	2	2.3004	6.9047	4.603
	741	1	2.3088	6.9082	9.2051
	742	2	2.2996	6.9013	13.801
	743	2	2.3014	6.8918	18.3908
	744	2	2.2959	6.9075	22.9947
	745	2	2.2966	6.8921	27.6041
	746	2	2.3027	6.9078	32.206
	747	2	2.3012	6.8997	36.7941
	748	2	2.2958	11.5099	0.0024
	749	2	2.3096	11.491	4.5952
	750	1	2.3052	11.4938	9.1974
	751	2	2.309	11.4989	13.7985
	752	2	2.3047	11.4946	18.407
	753	2	2.2973	11.5095	22.9949
	754	2	2.3056	11.5012	27.5952
	755	2	2.2957	11.4921	32.1933
	756	1	2.2973	11.5054	36.7926
	757	2	2.3022	16.0922	-0.0086
	758	1	2.3056	16.1022	4.6002
	759	1	2.2956	16.0912	9.1923
	760	2	2.3076	16.1022	13.7974
	761	2	2.3082	16.0979	18.4076
	762	2	2.3035	16.0965	23.0076
	763	2	2.3027	16.1082	27.605
	764	2	2.2963	16.1007	32.206
	765	2	2.3041	16.1003	36.7983
	766	1	2.2923	20.6992	0.006
	767	2	2.3001	20.6954	4.5988
	768	2	2.3044	20.702	9.201
	769	2	2.295	20.7078	13.81
	770	2	2.301	20.6982	18.3989
	771	2	2.2992	20.7023	23.0004
	772	1	2.3088	20.6912	27.5953
	773	2	2.3063	20.6939	32.2005
	774	2	2.2979	20.6998	36.8016
	775	2	2.3086	25.2951	-0.0072
	776	2	2.3006	25.2933	4.6021
	777	2	2.2971	25.2997	9.1977
	778	2	2.3034	25.3073	13.8029
	779	2	2.2901	25.3025	18.3978
	780	2	2.2957	25.2964	23.0017
	781	1	2.3053	25.2909	27.6014
	782	2	2.3072	25.2945	32.1902
	783	2	2.3014	25.2946	36.7925
	784	2	2.2915	29.9099	-0.0003
	785	2	2.2913	29.8945	4.6083
	786	2	2.305	29.8919	9.2048
	787	1	2.2991	29.8978	13.7921
	788	1	2.2959	29.9056	18.4044
	789	2	2.3098	29.9027	23.0003
	790	2	2.2924	29.9018	27.5981
	791	2	2.3099	29.8972	32.1937
	792	1	2.2963	29.9076	36.8078
	793	1	2.2964	34.5031	-0.0088
	794	2	2.3095	34.491	4.5959
	795	2	2.2981	34.4993	9.1928
	796	1	2.3026	34.5022	13.8013
	797	1	2.3048	34.5006	18.4054
	798	2	2.304	34.5096	22.9956
	799	1	2.2903	34.5033	27.605
	800	1	2.2988	34.4931	32.205
	801	2	2.2951	34.506	36.7912
	802	2	6.9089	2.3025	0.0079
	803	2	6.9019	2.295	4.6095
	804	1	6.9022	2.3098	9.1973
	805	2	6.9028	2.2962	13.8083
	806	1	6.901	2.2925	18.4019
	807	2	6.8945	2.3063	23.0009
	808	2	6.8927	2.296	27.5974
	809	1	6.9077	2.2952	32.1992
	810	2	6.8946	2.2925	36.809
	811	2	6.8977	6.8991	-0.0077
	812	2	6.9045	6.8947	4.6003
	813	2	6.8939	6.9043	9.1925
	814	1	6.91	6.8935	13.8059
	815	2	6.9071	6.9087	18.3945
	816	1	6.906	6.9067	23.009
	817	1	6.907	6.9014	27.5951
	818	2	6.8949	6.9047	32.1952
	819	2	6.8962	6.9087	36.7921
	820	2	6.9014	11.4946	-0.0073
	821	2	6.9035	11.4983	4.6011
	822	1	6.8916	11.4941	9.1994
	823	2	6.9003	11.4923	13.7978
	824	1	6.9091	11.5013	18.4072
	825	2	6.9042	11.4916	23.0092
	826	1	6.9056	11.5043	27.5924
	827	2	6.9	11.4925	32.2076
	828	1	6.9079	11.509	36.8079
	829	2	6.9008	16.0948	-0.0056
	830	2	6.8985	16.1075	4.5975
	831	1	6.9009	16.0984	9.2011
	832	2	6.8901	16.0918	13.7959
	833	1	6.9058	16.0948	18.4015
	834	1	6.8915	16.1002	23.0062
	835	2	6.891	16.1073	27.5951
	836	1	6.9028	16.1034	32.2086
	837	2	6.9073	16.1093	36.8017
	838	2	6.899	20.6918	0.0011
	839	1	6.8954	20.7092	4.6057
	840	2	6.8909	20.7024	9.1951
	841	1	6.9086	20.6937	13.809
	842	1	6.9061	20.6928	18.3916
	843	2	6.8961	20.7055	23.0034
	844	1	6.9085	20.6916	27.6042
	845	1	6.8941	20.6917	32.1929
	846	1	6.8981	20.6957	36.7944
	847	2	6.8911	25.3097	-0.0001
	848	1	6.8902	25.295	4.6078
	849	1	6.9003	25.3035	9.1907
	850	1	6.8993	25.2949	13.8068
	851	2	6.9031	25.2945	18.394
	852	2	6.8958	25.2939	22.9962
	853	2	6.8985	25.2924	27.6002
	854	2	6.8959	25.2959	32.2074
	855	2	6.8997	25.2908	36.8055
	856	2	6.908	29.8927	-0.0088
	857	2	6.8908	29.9042	4.5915
	858	2	6.8907	29.8935	9.2028
	859	2	6.9	29.9089	13.7943
	860	1	6.8925	29.9009	18.3996
	861	1	6.8994	29.8911	22.9913
	862	2	6.9054	29.9074	27.6095
	863	2	6.9085	29.8975	32.2037
	864	1	6.8998	29.9099	36.807
	865	2	6.9017	34.5044	0.0011
	866	1	6.8913	34.4941	4.5952
	867	2	6.9064	34.4973	9.2087
	868	2	6.904	34.5027	13.793
	869	2	6.8973	34.5072	18.3987
	870	2	6.8986	34.5085	23.0089
	871	2	6.9003	34.5048	27.5917
	872	2	6.8952	34.509	32.2076
	873	2	6.8993	34.4952	36.8053
	874	2	11.5047	2.3081	-0.0028
	875	1	11.5024	2.2946	4.5925
	876	2	11.4904	2.3028	9.1926
	877	2	11.4944	2.2966	13.7924
	878	1	11.4917	2.301	18.3959
	879	1	11.4953	2.2908	23.0022
	880	1	11.4996	2.293	27.6007
	881	2	11.4974	2.3094	32.2096
	882	1	11.5033	2.2971	36.802
	883	2	11.4944	6.8979	0.0007
	884	2	11.4954	6.8955	4.5974
	885	2	11.4959	6.901	9.191
	886	1	11.494	6.8972	13.7989
	887	2	11.493	6.8988	18.4084
	888	2	11.5041	6.906	23.0019
	889	2	11.4979	6.8981	27.5919
	890	1	11.5077	6.9005	32.1956
	891	1	11.5039	6.904	36.7945
	892	2	11.5015	11.5063	0.0061
	893	2	11.4944	11.4933	4.6085
	894	1	11.5096	11.4995	9.1988
	895	1	11.5027	11.5008	13.7915
	896	2	11.4985	11.4995	18.3961
	897	1	11.5029	11.4948	23.008
	898	2	11.503	11.5011	27.6016
	899	2	11.5009	11.4937	32.208
	900	2	11.4928	11.4998	36.8007
	901	1	11.4936	16.0999	0.0023
	902	2	11.5034	16.0993	4.5903
	903	2	11.4922	16.0939	9.2094
	904	1	11.5032	16.0921	13.806
	905	1	11.5079	16.0986	18.3985
	906	2	11.4945	16.0903	23.0096
	907	1	11.503	16.1055	27.6062
	908	2	11.4924	16.1003	32.2023
	909	2	11.5022	16.1	36.8068
	910	2	11.5035	20.6938	-0.0041
	911	2	11.5037	20.6968	4.6085
	912	1	11.5078	20.6937	9.2029
	913	1	11.4945	20.6952	13.791
	914	1	11.5018	20.6953	18.4073
	915	2	11.4925	20.7074	23.0062
	916	1	11.4996	20.703	27.609
	917	2	11.5084	20.7025	32.2029
	918	2	11.5037	20.6923	36.7964
	919	1	11.5009	25.2949	0.0085
	920	2	11.4913	25.2917	4.6061
	921	1	11.4939	25.3007	9.2085
	922	2	11.5089	25.3074	13.7911
	923	2	11.498	25.3059	18.3924
	924	2	11.4923	25.2941	23.0018
	925	2	11.5049	25.2967	27.5979
	926	1	11.5098	25.3008	32.1906
	927	2	11.5083	25.3006	36.7984
	928	2	11.4917	29.9059	0.009
	929	2	11.4915	29.8946	4.5917
	930	1	11.5046	29.8903	9.2064
	931	2	11.4965	29.898	13.8039
	932	2	11.4994	29.9017	18.4026
	933	2	11.5048	29.8929	22.9975
	934	2	11.4961	29.89	27.6015
	935	2	11.5018	29.9026	32.191
	936	2	11.5039	29.9034	36.8061
	937	2	11.5068	34.4939	0.0009
	938	2	11.5085	34.4901	4.5958
	939	1	11.4947	34.5025	9.2056
	940	2	11.4915	34.5033	13.8033
	941	2	11.4987	34.4931	18.3985
	942	1	11.507	34.4969	23.008
	943	1	11.5095	34.5076	27.5945
	944	2	11.4958	34.5098	32.2021
	945	2	11.4972	34.4912	36.7971
	946	2	16.0987	2.29	0.0013
	947	2	16.0934	2.2967	4.6009
	948	2	16.0994	2.3014	9.2008
	949	2	16.0978	2.3042	13.806
	950	2	16.0969	2.3008	18.4052
	951	2	16.1056	2.297	23.0086
	952	2	16.1044	2.3003	27.5985
	953	2	16.1062	2.3091	32.1964
	954	2	16.1008	2.2987	36.7938
	955	2	16.0914	6.8972	-0.0038
	956	2	16.0991	6.9081	4.5964
	957	1	16.0948	6.8993	9.201
	958	2	16.0926	6.9085	13.7927
	959	2	16.0905	6.9086	18.3965
	960	1	16.1046	6.895	23.008
	961	2	16.0941	6.8987	27.5903
	962	1	16.1042	6.8929	32.2018
	963	2	16.1023	6.9	36.7999
	964	1	16.1054	11.4988	0.0017
	965	2	16.1029	11.5055	4.6
	966	2	16.0919	11.4927	9.2036
	967	1	16.104	11.4921	13.8041
	968	1	16.0955	11.5096	18.4041
	969	1	16.0962	11.4958	22.9991
	970	2	16.0964	11.4997	27.6049
	971	2	16.1048	11.494	32.2009
	972	2	16.0934	11.5067	36.8024
	973	2	16.1063	16.0904	0.0012
	974	2	16.105	16.1069	4.5936
	975	2	16.1011	16.094	9.2028
	976	2	16.0923	16.1042	13.7997
	977	2	16.1099	16.0971	18.3977
	978	2	16.1022	16.0988	23.0013
	979	2	16.1028	16.0914	27.5929
	980	2	16.0982	16.1066	32.2019
	981	2	16.096	16.1071	36.7997
	982	2	16.1095	20.6954	-0.0085
	983	2	16.1018	20.6921	4.605
	984	2	16.0993	20.7067	9.2077
	985	2	16.0967	20.6985	13.8042
	986	2	16.1029	20.6998	18.4005
	987	2	16.0969	20.7062	22.9908
	988	2	16.1055	20.7023	27.6062
	989	2	16.1058	20.7073	32.2023
	990	1	16.09	20.6963	36.808
	991	2	16.1022	25.2925	-0.0072
	992	2	16.099	25.2991	4.5979
	993	1	16.1025	25.3022	9.1995
	994	1	16.0947	25.2994	13.7942
	995	1	16.1089	25.2927	18.3957
	996	2	16.1073	25.3042	22.9907
	997	2	16.0942	25.2906	27.6007
	998	1	16.1025	25.3083	32.1983
	999	2	16.1098	25.297	36.7959
	1000	2	16.1051	29.9073	0.0059
	1001	2	16.1068	29.9044	4.595
	1002	2	16.0944	29.8911	9.1926
	1003	2	16.0911	29.9057	13.8
	1004	1	16.108	29.8989	18.4058