Nickle Copper Simulation

63 	atoms
0 	bonds
0 	angles
0 	dihedrals
0 	impropers

2	atom types
0	bond types
0	angle types
0	dihedral types
0	improper types

-0.02	9.22	xlo xhi
-0.02	9.22	ylo yhi
-0.02	9.22	zlo zhi

Atoms

	1	2	-0.0025	0.0013	0.0056
	2	1	0.0053	-0.0052	4.593
	3	1	-0.0004	-0.0038	9.1945
	4	2	0.0055	4.6047	0.0084
	5	2	-0.0098	4.5953	4.6084
	6	2	0.001	4.5989	9.1927
	7	2	-0.0034	9.2048	-0.0001
	8	2	-0.0051	9.2095	4.5975
	9	2	0.0002	9.2059	9.1995
	10	2	4.6076	-0.0069	0.0093
	11	1	4.5942	0.0002	4.6022
	12	2	4.606	-0.0052	9.2099
	13	2	4.6031	4.5927	0.0055
	14	2	4.5919	4.6089	4.5918
	15	2	4.6091	4.6019	9.1916
	16	1	4.6068	9.2071	0.003
	17	2	4.6088	9.1964	4.607
	18	2	4.6082	9.1981	9.1925
	19	2	9.2031	0.004	0.0028
	20	2	9.2017	0.0093	4.6038
	21	2	9.2083	0.0072	9.1939
	22	2	9.2092	4.6083	-0.0035
	23	2	9.2028	4.6072	4.5943
	24	1	9.21	4.5947	9.2045
	25	2	9.1915	9.2016	-0.003
	26	2	9.1904	9.2058	4.607
	27	2	9.2072	9.2037	9.1952
	28	1	2.3	2.2955	-0.0023
	29	2	2.2956	2.3011	4.5903
	30	1	2.302	2.293	9.1919
	31	1	2.3037	6.896	-0.0046
	32	1	2.3085	6.8967	4.5933
	33	2	2.2966	6.9055	9.1935
	34	1	6.9089	2.2982	-0.0071
	35	2	6.9007	2.3012	4.6095
	36	2	6.9035	2.2929	9.2081
	37	2	6.9058	6.8949	-0.0084
	38	1	6.8921	6.9017	4.5939
	39	2	6.8936	6.8966	9.19
	40	2	2.2915	0.0073	2.2969
	41	2	2.2941	0.0096	6.904
	42	2	2.2943	4.6029	2.3091
	43	2	2.2903	4.6089	6.8921
	44	1	2.3008	9.2088	2.2976
	45	2	2.2915	9.2031	6.9071
	46	2	6.9059	0.0042	2.3024
	47	1	6.9032	0.008	6.9011
	48	2	6.9059	4.5966	2.3078
	49	2	6.9024	4.605	6.8998
	50	2	6.9067	9.1963	2.308
	51	2	6.8927	9.1917	6.9032
	52	2	0.0087	2.295	2.2942
	53	1	-0.0059	2.3025	6.9031
	54	2	-0.0033	6.9019	2.3044
	55	2	0.0018	6.9022	6.8972
	56	1	4.6073	2.2999	2.2976
	57	2	4.6018	2.3019	6.8996
	58	1	4.597	6.9019	2.2973
	59	2	4.6004	6.9084	6.9025
	60	2	9.2073	2.2973	2.2975
	61	2	9.1937	2.297	6.8949
	62	2	9.1931	6.8973	2.2918
	63	1	9.1941	6.9029	6.9038

Velocities

	1	0.0	0.0	0.0
	2	0.0	0.0	0.0
	3	0.0	0.0	0.0
	4	0.0	0.0	0.0
	5	0.0	0.0	0.0
	6	0.0	0.0	0.0
	7	0.0	0.0	0.0
	8	0.0	0.0	0.0
	9	0.0	0.0	0.0
	10	0.0	0.0	0.0
	11	0.0	0.0	0.0
	12	0.0	0.0	0.0
	13	0.0	0.0	0.0
	14	0.0	0.0	0.0
	15	0.0	0.0	0.0
	16	0.0	0.0	0.0
	17	0.0	0.0	0.0
	18	0.0	0.0	0.0
	19	0.0	0.0	0.0
	20	0.0	0.0	0.0
	21	0.0	0.0	0.0
	22	0.0	0.0	0.0
	23	0.0	0.0	0.0
	24	0.0	0.0	0.0
	25	0.0	0.0	0.0
	26	0.0	0.0	0.0
	27	0.0	0.0	0.0
	28	0.0	0.0	0.0
	29	0.0	0.0	0.0
	30	0.0	0.0	0.0
	31	0.0	0.0	0.0
	32	0.0	0.0	0.0
	33	0.0	0.0	0.0
	34	0.0	0.0	0.0
	35	0.0	0.0	0.0
	36	0.0	0.0	0.0
	37	0.0	0.0	0.0
	38	0.0	0.0	0.0
	39	0.0	0.0	0.0
	40	0.0	0.0	0.0
	41	0.0	0.0	0.0
	42	0.0	0.0	0.0
	43	0.0	0.0	0.0
	44	0.0	0.0	0.0
	45	0.0	0.0	0.0
	46	0.0	0.0	0.0
	47	0.0	0.0	0.0
	48	0.0	0.0	0.0
	49	0.0	0.0	0.0
	50	0.0	0.0	0.0
	51	0.0	0.0	0.0
	52	0.0	0.0	0.0
	53	0.0	0.0	0.0
	54	0.0	0.0	0.0
	55	0.0	0.0	0.0
	56	0.0	0.0	0.0
	57	0.0	0.0	0.0
	58	0.0	0.0	0.0
	59	0.0	0.0	0.0
	60	0.0	0.0	0.0
	61	0.0	0.0	0.0
	62	0.0	0.0	0.0
	63	-0.0	-0.0	-0.0

