Nickle Copper Simulation

1688 	atoms
0 	bonds
0 	angles
0 	dihedrals
0 	impropers

2	atom types
0	bond types
0	angle types
0	dihedral types
0	improper types

-0.02	32.22	xlo xhi
-0.02	32.22	ylo yhi
-0.02	32.22	zlo zhi

Atoms

	1	2	-0.0067	0.0044	0.0017
	2	2	0.0011	-0.009	4.6039
	3	2	0.0002	0.0052	9.2062
	4	2	0.0016	-0.0044	13.7905
	5	2	0.0079	-0.0015	18.4065
	6	2	0.0018	0.0078	23.0057
	7	1	-0.0004	0.0062	27.5902
	8	2	-0.0007	-0.0039	32.1926
	9	2	0.0003	4.5996	0.0091
	10	2	-0.0015	4.6038	4.6009
	11	1	-0.0076	4.5902	9.1938
	12	2	-0.0055	4.5936	13.7995
	13	2	-0.0086	4.5974	18.4091
	14	2	-0.0077	4.5977	23.0075
	15	2	0.0088	4.5912	27.6073
	16	1	-0.0022	4.5951	32.1946
	17	1	0.0036	9.1968	0.0033
	18	2	-0.0024	9.1971	4.5994
	19	2	-0.0014	9.2098	9.1985
	20	2	0.0005	9.1966	13.7946
	21	2	-0.0066	9.2027	18.3984
	22	2	-0.0003	9.1999	22.9913
	23	1	-0.006	9.2096	27.6015
	24	1	-0.002	9.1996	32.1941
	25	2	0.0053	13.8033	0.0005
	26	2	0.0047	13.8003	4.6048
	27	2	0.0095	13.8027	9.1949
	28	2	-0.0042	13.8015	13.805
	29	2	0.0083	13.8081	18.4017
	30	2	-0.0044	13.8017	22.9909
	31	2	-0.0086	13.8028	27.5989
	32	2	-0.0068	13.8089	32.1946
	33	2	-0.007	18.3935	-0.0009
	34	2	-0.0035	18.4026	4.5966
	35	2	-0.0005	18.3974	9.1963
	36	2	-0.0015	18.3909	13.7999
	37	1	-0.0035	18.3972	18.4087
	38	2	-0.0034	18.3916	23.0079
	39	2	-0.0039	18.3937	27.601
	40	2	-0.0061	18.3987	32.2084
	41	2	0.0005	23.0087	-0.0091
	42	2	-0.0001	22.9966	4.6044
	43	2	0.006	23.0002	9.192
	44	2	-0.0005	22.9999	13.7922
	45	1	-0.0057	23.0088	18.4043
	46	2	0.0019	22.9946	23.0036
	47	2	-0.0028	23.0046	27.6073
	48	2	0.0038	23.0005	32.1956
	49	2	-0.0064	27.6039	-0.0069
	50	2	-0.001	27.5968	4.5919
	51	1	-0.0011	27.5959	9.2081
	52	1	-0.0017	27.6078	13.7953
	53	2	-0.0091	27.6093	18.4069
	54	2	-0.0002	27.5961	22.9944
	55	2	-0.0041	27.5995	27.599
	56	2	-0.0085	27.5918	32.2091
	57	2	-0.0053	32.1947	-0.0097
	58	2	0.0017	32.2089	4.5931
	59	1	0.0076	32.2024	9.1992
	60	1	0.0042	32.193	13.805
	61	2	-0.0018	32.1959	18.3922
	62	1	0.0046	32.2019	23.008
	63	1	-0.0093	32.2036	27.6065
	64	2	0.0089	32.2033	32.1976
	65	2	4.5919	-0.0052	-0.0022
	66	1	4.5961	0.0039	4.5948
	67	1	4.5952	-0.0076	9.1935
	68	2	4.5903	-0.0069	13.794
	69	1	4.5963	-0.0	18.4047
	70	2	4.6025	-0.001	23.0052
	71	2	4.5931	-0.0024	27.6038
	72	1	4.5915	-0.0088	32.1972
	73	2	4.6034	4.603	0.0021
	74	2	4.5946	4.5999	4.5953
	75	2	4.5926	4.6087	9.2022
	76	1	4.5919	4.6061	13.8051
	77	2	4.6002	4.5912	18.4078
	78	2	4.5919	4.6016	23.0044
	79	2	4.59	4.5958	27.5901
	80	2	4.5984	4.6088	32.1994
	81	2	4.6073	9.2093	0.0012
	82	2	4.6021	9.2096	4.5956
	83	1	4.5924	9.2068	9.1922
	84	1	4.5967	9.1953	13.8074
	85	2	4.6055	9.1926	18.3955
	86	1	4.609	9.1949	23.0073
	87	1	4.6028	9.2045	27.6023
	88	2	4.6059	9.1995	32.2059
	89	2	4.6006	13.7973	0.0077
	90	2	4.6069	13.7994	4.5908
	91	2	4.5946	13.8083	9.1959
	92	1	4.5941	13.7983	13.809
	93	1	4.605	13.8042	18.4032
	94	2	4.6034	13.8024	23.0087
	95	2	4.5989	13.7969	27.6042
	96	2	4.6003	13.8008	32.2052
	97	2	4.6043	18.3939	-0.0028
	98	1	4.6088	18.3902	4.5996
	99	2	4.6032	18.4099	9.1947
	100	2	4.5994	18.3987	13.8051
	101	2	4.6048	18.4021	18.4008
	102	1	4.6077	18.4042	23.0065
	103	2	4.5981	18.3978	27.6008
	104	2	4.5938	18.391	32.2071
	105	2	4.6051	23.0012	0.0001
	106	1	4.5953	22.9986	4.6027
	107	2	4.5964	22.9903	9.1929
	108	1	4.5987	22.9957	13.8018
	109	2	4.5918	22.9984	18.4033
	110	2	4.5957	23.0099	23.0035
	111	2	4.5945	22.9967	27.5968
	112	1	4.6075	23.0064	32.1947
	113	2	4.6032	27.607	0.0032
	114	2	4.6032	27.6017	4.6
	115	2	4.5923	27.6024	9.194
	116	1	4.5916	27.5963	13.7986
	117	2	4.5989	27.5984	18.4057
	118	1	4.5923	27.6039	23.0071
	119	2	4.597	27.5955	27.5948
	120	1	4.5998	27.6017	32.2091
	121	1	4.6077	32.1997	-0.0011
	122	2	4.6032	32.1918	4.5987
	123	2	4.5941	32.1997	9.1915
	124	2	4.6049	32.1983	13.8076
	125	1	4.6094	32.1981	18.3924
	126	2	4.6085	32.1928	22.9969
	127	2	4.6066	32.2056	27.595
	128	2	4.6009	32.199	32.1912
	129	1	9.2076	0.009	0.0074
	130	2	9.2077	0.0077	4.607
	131	2	9.2052	0.0046	9.2019
	132	2	9.198	0.0001	13.8049
	133	2	9.1967	0.0016	18.3936
	134	2	9.2001	-0.0072	22.9929
	135	2	9.1963	0.0098	27.6013
	136	2	9.1997	-0.0085	32.1963
	137	2	9.191	4.5989	0.0061
	138	1	9.1945	4.5958	4.5913
	139	2	9.2082	4.6062	9.194
	140	2	9.2029	4.5927	13.8021
	141	1	9.2087	4.6034	18.4043
	142	2	9.1958	4.6079	22.9923
	143	2	9.2001	4.5991	27.5929
	144	2	9.2094	4.5923	32.1924
	145	2	9.1951	9.1901	0.0087
	146	2	9.1993	9.1964	4.6055
	147	2	9.1903	9.1915	9.1904
	148	1	9.2046	9.1912	13.8097
	149	2	9.2045	9.2093	18.4075
	150	2	9.2075	9.1971	22.994
	151	1	9.1949	9.2037	27.5991
	152	2	9.1929	9.2032	32.2002
	153	2	9.2075	13.7923	0.0043
	154	2	9.193	13.7906	4.606
	155	1	9.1948	13.8035	9.2027
	156	1	9.1971	13.7988	13.8016
	157	1	9.1944	13.7903	18.3921
	158	2	9.1976	13.8084	23.0031
	159	2	9.1951	13.7965	27.5922
	160	1	9.2088	13.8046	32.1918
	161	2	9.2004	18.3976	0.0053
	162	2	9.1911	18.3954	4.5935
	163	1	9.1913	18.3958	9.209
	164	2	9.2013	18.4039	13.8032
	165	2	9.1905	18.3931	18.3981
	166	2	9.205	18.4004	22.9975
	167	1	9.2098	18.393	27.5951
	168	1	9.1949	18.409	32.1903
	169	1	9.1929	22.9992	-0.0035
	170	2	9.1977	23.001	4.5937
	171	2	9.2085	22.9965	9.2074
	172	2	9.1944	23.0042	13.8097
	173	1	9.1916	23.0067	18.406
	174	1	9.2054	22.9963	23.0007
	175	2	9.2018	22.9931	27.6053
	176	2	9.208	23.0035	32.1987
	177	2	9.2048	27.5918	-0.0091
	178	1	9.2025	27.6099	4.6056
	179	2	9.2037	27.61	9.1968
	180	2	9.2039	27.5997	13.7938
	181	2	9.1928	27.6083	18.408
	182	2	9.1945	27.608	22.997
	183	2	9.2014	27.6066	27.605
	184	1	9.1985	27.6012	32.2082
	185	1	9.2003	32.1978	-0.0005
	186	2	9.1982	32.1944	4.5983
	187	2	9.1906	32.2057	9.1927
	188	1	9.2098	32.2015	13.793
	189	1	9.1988	32.2029	18.4018
	190	2	9.2077	32.2067	22.9927
	191	2	9.2003	32.203	27.6064
	192	1	9.1959	32.1962	32.196
	193	2	13.8069	0.008	0.0024
	194	1	13.8054	-0.0032	4.6093
	195	2	13.8017	0.0019	9.205
	196	1	13.8031	-0.0074	13.803
	197	2	13.7933	-0.0067	18.4079
	198	2	13.8098	-0.0012	23.0052
	199	1	13.8012	-0.0076	27.5976
	200	2	13.8032	0.0038	32.1981
	201	2	13.7973	4.6076	0.0096
	202	1	13.7964	4.5976	4.5972
	203	1	13.7948	4.6001	9.2051
	204	2	13.8099	4.6038	13.7909
	205	1	13.7916	4.5996	18.3969
	206	2	13.7982	4.6012	23.0032
	207	2	13.793	4.594	27.6041
	208	2	13.7996	4.6047	32.1939
	209	1	13.7952	9.2074	-0.0018
	210	2	13.8068	9.1915	4.6019
	211	1	13.8083	9.2017	9.2085
	212	1	13.8063	9.1944	13.8013
	213	2	13.7915	9.201	18.409
	214	2	13.8033	9.1951	23.0047
	215	2	13.8065	9.191	27.6003
	216	2	13.7967	9.1924	32.195
	217	1	13.794	13.7964	0.0036
	218	2	13.8078	13.8039	4.6
	219	2	13.7962	13.8086	9.191
	220	1	13.8014	13.7902	13.8099
	221	1	13.799	13.8026	18.3995
	222	2	13.806	13.8011	23.0048
	223	2	13.7902	13.8062	27.6036
	224	1	13.7948	13.806	32.1915
	225	2	13.7949	18.3981	-0.004
	226	2	13.8065	18.4031	4.5938
	227	1	13.799	18.4083	9.2051
	228	2	13.7967	18.4057	13.8054
	229	2	13.7924	18.3957	18.4029
	230	2	13.7978	18.4006	23.0003
	231	2	13.8004	18.392	27.5977
	232	2	13.8021	18.4089	32.2099
	233	2	13.8005	22.9931	0.0076
	234	2	13.791	23.0036	4.5954
	235	2	13.8016	23.0005	9.2099
	236	1	13.7991	23.0056	13.8063
	237	2	13.7915	22.9909	18.4053
	238	2	13.794	23.0088	23.0091
	239	2	13.8084	23.0047	27.6041
	240	2	13.7953	23.007	32.1918
	241	2	13.7966	27.5946	-0.0034
	242	2	13.7991	27.6082	4.5965
	243	2	13.7932	27.5955	9.2006
	244	1	13.8	27.6052	13.7993
	245	2	13.7951	27.5989	18.4068
	246	1	13.7942	27.6026	22.998
	247	2	13.8011	27.6049	27.5951
	248	1	13.8036	27.5939	32.1966
	249	1	13.7999	32.2022	0.0041
	250	2	13.798	32.1929	4.5956
	251	1	13.7994	32.1923	9.1973
	252	2	13.8022	32.2063	13.8075
	253	2	13.7913	32.2073	18.4041
	254	2	13.8066	32.2025	23.0037
	255	2	13.807	32.2043	27.6011
	256	2	13.7958	32.2083	32.2068
	257	1	18.3986	-0.0046	-0.0038
	258	1	18.3953	0.0001	4.5945
	259	1	18.3994	-0.0057	9.2085
	260	1	18.3955	-0.0052	13.8084
	261	2	18.3926	-0.0068	18.3955
	262	2	18.403	0.0004	23.0002
	263	2	18.3971	-0.0033	27.5994
	264	2	18.4069	0.0025	32.2058
	265	2	18.395	4.5966	-0.0073
	266	2	18.409	4.6012	4.5963
	267	2	18.3938	4.5997	9.1938
	268	2	18.4002	4.5935	13.8022
	269	2	18.3995	4.5916	18.3917
	270	1	18.3975	4.5924	22.9921
	271	2	18.4014	4.5952	27.5933
	272	1	18.4065	4.6095	32.2024
	273	2	18.3909	9.2081	0.0088
	274	1	18.4042	9.1904	4.6019
	275	2	18.3978	9.1941	9.1934
	276	1	18.4048	9.1909	13.7929
	277	1	18.4043	9.1957	18.4097
	278	2	18.4083	9.2085	23.0097
	279	2	18.4068	9.1996	27.5907
	280	2	18.4025	9.207	32.1997
	281	1	18.3988	13.799	-0.0027
	282	2	18.3912	13.8071	4.6024
	283	2	18.3941	13.8093	9.1982
	284	2	18.3916	13.8071	13.7978
	285	2	18.3926	13.802	18.4087
	286	2	18.4073	13.7998	23.0027
	287	2	18.3916	13.8088	27.5934
	288	1	18.3973	13.7926	32.1943
	289	2	18.3904	18.4034	-0.007
	290	2	18.402	18.4002	4.6019
	291	1	18.4099	18.4013	9.2043
	292	1	18.3966	18.4046	13.7976
	293	2	18.406	18.3998	18.3911
	294	2	18.3904	18.4017	23.009
	295	1	18.3902	18.3961	27.6031
	296	1	18.403	18.3977	32.1974
	297	1	18.4051	23.0025	0.0079
	298	2	18.4073	22.9962	4.6031
	299	2	18.4094	23.0029	9.2031
	300	2	18.3987	23.0048	13.7941
	301	2	18.4011	22.9918	18.4079
	302	2	18.3998	23.002	22.9908
	303	2	18.3958	22.9951	27.5981
	304	2	18.4098	23.0086	32.1946
	305	2	18.4082	27.5913	0.0014
	306	2	18.408	27.6027	4.5911
	307	1	18.4057	27.6052	9.1926
	308	1	18.3921	27.5983	13.7975
	309	1	18.3964	27.6055	18.3929
	310	2	18.4065	27.5979	22.9935
	311	2	18.4045	27.5925	27.6048
	312	1	18.4044	27.6015	32.2093
	313	1	18.4093	32.2099	-0.007
	314	1	18.3907	32.2003	4.5958
	315	2	18.4094	32.2024	9.1999
	316	2	18.3992	32.1989	13.7944
	317	2	18.3987	32.2055	18.395
	318	2	18.3964	32.1907	22.9998
	319	1	18.3983	32.2076	27.5939
	320	2	18.4031	32.1914	32.1966
	321	2	22.9965	0.0017	-0.0052
	322	2	22.9906	0.01	4.6083
	323	1	22.9927	0.0021	9.2011
	324	2	22.9991	-0.0036	13.791
	325	1	23.0025	0.0006	18.4041
	326	2	22.9924	-0.0056	23.001
	327	1	22.9968	0.0009	27.6061
	328	1	23.0013	-0.0025	32.2
	329	1	23.0001	4.6015	-0.0073
	330	2	23.0069	4.594	4.5987
	331	1	22.9907	4.609	9.2066
	332	2	22.9982	4.5972	13.8006
	333	2	23.0097	4.5972	18.3969
	334	1	22.996	4.5908	22.9983
	335	2	22.998	4.6082	27.6049
	336	1	22.9972	4.6039	32.2099
	337	2	23.008	9.2096	0.0026
	338	2	23.0084	9.2053	4.6075
	339	2	22.9901	9.2036	9.1978
	340	1	23.0048	9.2059	13.7913
	341	1	23.0055	9.1961	18.4033
	342	2	22.9992	9.2074	23.0085
	343	1	22.9964	9.2063	27.5914
	344	2	22.9941	9.1911	32.2014
	345	2	22.9996	13.7952	0.002
	346	2	23.0075	13.7991	4.5919
	347	1	23.0034	13.8093	9.1934
	348	2	22.9921	13.8019	13.7987
	349	1	23.0092	13.7982	18.3966
	350	2	22.9951	13.8051	22.9978
	351	2	22.996	13.8043	27.5926
	352	2	23.0044	13.7984	32.2018
	353	2	23.0073	18.3994	-0.0055
	354	1	23.001	18.3964	4.6053
	355	2	23.0037	18.405	9.1947
	356	2	23.0067	18.3935	13.8008
	357	2	23.005	18.3939	18.4064
	358	2	23.0098	18.3939	23.0067
	359	1	22.9909	18.3904	27.6098
	360	2	23.0012	18.3915	32.2047
	361	1	23.0025	23.0036	0.0076
	362	2	22.9906	22.9908	4.6065
	363	1	22.9951	22.9946	9.1925
	364	2	23.0092	22.9995	13.7951
	365	2	23.0078	23.0001	18.4082
	366	2	22.9998	23.005	23.0047
	367	1	22.998	22.9956	27.604
	368	1	22.9901	22.9997	32.1921
	369	1	23.0019	27.5914	0.0045
	370	2	23.0031	27.6078	4.5942
	371	2	22.9968	27.5906	9.2006
	372	2	23.0067	27.5922	13.8027
	373	2	22.9909	27.597	18.4095
	374	1	22.9987	27.6023	23.0049
	375	1	23.0093	27.5957	27.603
	376	2	22.9975	27.6007	32.1971
	377	2	23.0008	32.1915	0.0023
	378	1	23.0087	32.2016	4.601
	379	1	23.0093	32.207	9.1933
	380	1	23.0019	32.2013	13.8071
	381	2	22.9997	32.1959	18.4094
	382	2	22.9921	32.2087	22.9978
	383	1	22.9986	32.1937	27.5936
	384	2	22.9909	32.1956	32.1936
	385	2	27.5977	-0.0007	0.0093
	386	2	27.5943	0.0091	4.5959
	387	2	27.5982	-0.0067	9.203
	388	1	27.5919	-0.0092	13.8095
	389	2	27.5969	-0.0004	18.4044
	390	2	27.6038	0.0084	22.9958
	391	2	27.5928	-0.0076	27.5999
	392	1	27.5986	0.0082	32.201
	393	1	27.605	4.6	-0.0042
	394	2	27.5932	4.6046	4.606
	395	2	27.6065	4.5932	9.195
	396	1	27.6052	4.5945	13.7924
	397	2	27.6056	4.6078	18.3939
	398	2	27.5921	4.5967	23.0
	399	2	27.6005	4.5909	27.6028
	400	2	27.6015	4.5959	32.208
	401	2	27.5915	9.1921	-0.0039
	402	2	27.6084	9.2094	4.6012
	403	2	27.6086	9.191	9.1932
	404	2	27.5931	9.1975	13.7941
	405	1	27.5917	9.2027	18.4024
	406	1	27.6085	9.194	23.0085
	407	1	27.6029	9.2079	27.6072
	408	1	27.6039	9.1927	32.2039
	409	2	27.5946	13.8069	0.009
	410	1	27.6035	13.796	4.5964
	411	2	27.5932	13.8029	9.2035
	412	1	27.606	13.8029	13.7954
	413	1	27.5924	13.7904	18.3917
	414	2	27.6078	13.8046	22.9963
	415	1	27.6088	13.8014	27.6078
	416	2	27.5999	13.802	32.1923
	417	1	27.6071	18.3948	-0.0049
	418	2	27.6021	18.3936	4.6008
	419	2	27.6034	18.4016	9.2012
	420	2	27.5951	18.3964	13.7975
	421	2	27.6073	18.4044	18.4096
	422	2	27.6039	18.4032	23.0044
	423	2	27.5987	18.4049	27.5971
	424	2	27.6007	18.408	32.1941
	425	2	27.5969	22.9957	-0.0056
	426	2	27.5975	22.9943	4.5915
	427	1	27.5941	23.0031	9.1987
	428	2	27.602	22.9907	13.7938
	429	2	27.5974	23.0029	18.401
	430	2	27.6079	22.9977	23.0039
	431	1	27.5956	22.9946	27.5948
	432	2	27.6087	23.0061	32.199
	433	2	27.6078	27.5911	0.0083
	434	1	27.6035	27.5953	4.6057
	435	2	27.6048	27.5973	9.1943
	436	1	27.5951	27.608	13.7901
	437	2	27.5981	27.593	18.402
	438	2	27.6001	27.5996	22.9945
	439	2	27.6085	27.6064	27.5912
	440	1	27.5944	27.6017	32.1916
	441	2	27.6021	32.206	0.0005
	442	2	27.6025	32.2025	4.5953
	443	2	27.6046	32.2013	9.2098
	444	2	27.5931	32.2088	13.799
	445	2	27.6049	32.2025	18.3997
	446	1	27.6097	32.1966	23.0037
	447	2	27.5991	32.2076	27.5976
	448	2	27.6014	32.1905	32.2013
	449	1	32.1978	0.0005	0.0074
	450	2	32.1968	-0.0038	4.599
	451	2	32.1941	-0.0065	9.1951
	452	2	32.1979	0.0002	13.7955
	453	2	32.1994	-0.0079	18.3943
	454	2	32.1904	-0.0001	23.0094
	455	2	32.2067	0.0008	27.597
	456	1	32.2093	0.0026	32.2069
	457	2	32.2089	4.6059	0.0036
	458	2	32.1964	4.597	4.6056
	459	1	32.1994	4.5929	9.2072
	460	1	32.1993	4.5909	13.7951
	461	1	32.1963	4.5999	18.4004
	462	2	32.1995	4.6053	22.9945
	463	2	32.2027	4.5925	27.5968
	464	1	32.1929	4.5904	32.2016
	465	2	32.1999	9.2049	-0.0091
	466	2	32.1928	9.1902	4.6078
	467	2	32.1994	9.1996	9.2055
	468	1	32.194	9.1968	13.7971
	469	2	32.196	9.2014	18.4066
	470	2	32.2057	9.2098	22.9916
	471	2	32.1976	9.2088	27.5969
	472	2	32.2	9.205	32.1901
	473	1	32.1992	13.795	-0.01
	474	2	32.191	13.8017	4.5965
	475	2	32.1939	13.7946	9.1984
	476	2	32.1915	13.794	13.8097
	477	1	32.2014	13.8055	18.4033
	478	2	32.1981	13.8002	22.9913
	479	2	32.2059	13.8062	27.6097
	480	2	32.1979	13.8035	32.1928
	481	2	32.196	18.3902	0.0026
	482	1	32.204	18.4078	4.6051
	483	2	32.1903	18.3909	9.2014
	484	2	32.2019	18.4	13.8043
	485	2	32.1987	18.4086	18.4063
	486	2	32.2089	18.4062	23.0004
	487	2	32.2009	18.3942	27.5993
	488	1	32.1985	18.3914	32.2089
	489	1	32.1974	23.0083	0.0012
	490	1	32.1991	23.001	4.5989
	491	2	32.194	22.9952	9.1998
	492	2	32.1929	22.9901	13.7925
	493	2	32.1911	23.0021	18.397
	494	2	32.2083	23.0045	23.0
	495	2	32.2082	23.0089	27.602
	496	1	32.2067	22.9905	32.2002
	497	1	32.1968	27.6037	-0.0061
	498	2	32.2019	27.5999	4.6023
	499	2	32.196	27.5961	9.2005
	500	2	32.1985	27.5996	13.8011
	501	2	32.2077	27.6056	18.4051
	502	2	32.2	27.61	22.9941
	503	2	32.194	27.6075	27.604
	504	2	32.1926	27.5992	32.2039
	505	2	32.1911	32.201	0.0078
	506	2	32.1952	32.1925	4.5959
	507	2	32.1991	32.1944	9.205
	508	2	32.205	32.204	13.8077
	509	2	32.2057	32.2092	18.3956
	510	2	32.1974	32.1928	23.0001
	511	2	32.1979	32.2071	27.5923
	512	2	32.208	32.2062	32.1975
	513	2	2.3058	2.2956	0.0001
	514	2	2.3047	2.2993	4.6085
	515	2	2.2948	2.3047	9.2017
	516	2	2.2986	2.3092	13.7905
	517	1	2.3062	2.3087	18.4039
	518	2	2.3075	2.292	22.9969
	519	2	2.292	2.3091	27.6097
	520	2	2.3001	2.2961	32.2005
	521	2	2.3086	6.9063	0.0068
	522	2	2.3041	6.9065	4.597
	523	2	2.2927	6.8912	9.2075
	524	1	2.2957	6.9055	13.808
	525	2	2.2987	6.899	18.3924
	526	1	2.3025	6.9015	22.9926
	527	1	2.2948	6.8961	27.5983
	528	2	2.2933	6.9047	32.2047
	529	1	2.2993	11.4949	0.0096
	530	1	2.2998	11.5038	4.6025
	531	2	2.2987	11.4934	9.1997
	532	2	2.3093	11.5012	13.7957
	533	2	2.3032	11.4915	18.395
	534	2	2.3059	11.5079	23.0003
	535	2	2.3041	11.4999	27.6071
	536	2	2.299	11.4929	32.1974
	537	2	2.2908	16.1	0.0012
	538	1	2.2988	16.1014	4.6029
	539	2	2.2946	16.0935	9.1996
	540	2	2.3035	16.1065	13.8029
	541	2	2.296	16.0983	18.4089
	542	1	2.299	16.0969	23.0082
	543	2	2.3002	16.09	27.6001
	544	2	2.3077	16.1019	32.1927
	545	2	2.3037	20.706	-0.0065
	546	2	2.3075	20.6926	4.6078
	547	1	2.3058	20.7005	9.195
	548	1	2.3072	20.7046	13.8005
	549	2	2.303	20.6925	18.4018
	550	2	2.3033	20.7025	22.9964
	551	1	2.3051	20.7057	27.5918
	552	1	2.2982	20.6912	32.2042
	553	2	2.3059	25.2942	-0.0063
	554	2	2.2973	25.3	4.5964
	555	2	2.3089	25.2969	9.1922
	556	2	2.2939	25.2958	13.8077
	557	1	2.3005	25.3035	18.4025
	558	1	2.2908	25.295	23.0004
	559	2	2.2927	25.2949	27.596
	560	2	2.2982	25.3056	32.2058
	561	2	2.3047	29.8953	0.0031
	562	1	2.2986	29.907	4.6015
	563	1	2.3061	29.8969	9.1957
	564	2	2.3079	29.9072	13.7988
	565	2	2.2908	29.9054	18.408
	566	2	2.3025	29.9064	22.9935
	567	2	2.3071	29.9002	27.5972
	568	2	2.3044	29.9033	32.1935
	569	2	6.9054	2.294	0.0055
	570	2	6.9039	2.2963	4.6073
	571	1	6.9086	2.3034	9.2016
	572	2	6.895	2.3078	13.792
	573	1	6.8916	2.308	18.4035
	574	2	6.9058	2.2961	22.9945
	575	2	6.897	2.3057	27.6049
	576	2	6.8915	2.2968	32.207
	577	1	6.8994	6.9097	0.0063
	578	1	6.9011	6.8908	4.5962
	579	2	6.907	6.8964	9.1924
	580	2	6.9022	6.89	13.8037
	581	2	6.9026	6.8917	18.4012
	582	2	6.8928	6.8988	23.002
	583	1	6.8945	6.8935	27.6061
	584	2	6.9015	6.9	32.2005
	585	1	6.8987	11.5034	0.0
	586	2	6.8946	11.4916	4.5937
	587	2	6.9071	11.5043	9.1926
	588	1	6.9032	11.4901	13.8081
	589	2	6.8939	11.493	18.3961
	590	2	6.9018	11.5072	23.0068
	591	2	6.9094	11.5044	27.5969
	592	1	6.9068	11.4958	32.1961
	593	1	6.8926	16.1055	-0.0099
	594	2	6.9045	16.0982	4.5943
	595	2	6.9039	16.1018	9.1928
	596	1	6.9036	16.1036	13.8046
	597	2	6.8943	16.1098	18.4073
	598	1	6.9037	16.0918	22.9952
	599	1	6.9017	16.0937	27.6052
	600	2	6.8906	16.0976	32.1916
	601	2	6.898	20.6928	-0.0056
	602	2	6.8905	20.7072	4.5916
	603	2	6.8972	20.7006	9.1979
	604	1	6.9039	20.691	13.8027
	605	2	6.8978	20.6949	18.3934
	606	2	6.8944	20.6961	23.0088
	607	2	6.9049	20.6967	27.604
	608	1	6.9018	20.6983	32.2026
	609	2	6.89	25.2939	-0.0091
	610	1	6.8975	25.2955	4.5993
	611	1	6.9053	25.308	9.198
	612	2	6.9062	25.3012	13.7963
	613	2	6.901	25.3096	18.3931
	614	2	6.9055	25.2937	23.0093
	615	2	6.9099	25.2951	27.61
	616	2	6.9063	25.2918	32.2027
	617	2	6.8946	29.904	0.0027
	618	2	6.901	29.9031	4.601
	619	2	6.8904	29.9078	9.1996
	620	1	6.9081	29.9033	13.8039
	621	1	6.9077	29.9007	18.3991
	622	1	6.8958	29.9064	23.0007
	623	1	6.8996	29.8933	27.5989
	624	2	6.9051	29.8995	32.1904
	625	2	11.4958	2.3015	-0.0026
	626	2	11.5078	2.3001	4.5968
	627	2	11.4996	2.2927	9.2084
	628	2	11.4997	2.2932	13.8057
	629	2	11.5003	2.2959	18.4015
	630	1	11.5014	2.3005	23.0065
	631	2	11.5034	2.3037	27.5917
	632	1	11.5031	2.2972	32.2094
	633	1	11.5009	6.9058	0.0088
	634	1	11.5043	6.8937	4.604
	635	2	11.5056	6.8903	9.2069
	636	1	11.5074	6.8905	13.8099
	637	2	11.5095	6.8932	18.4085
	638	2	11.4931	6.9086	23.0067
	639	2	11.5079	6.906	27.607
	640	1	11.505	6.906	32.1982
	641	1	11.5004	11.4941	-0.0095
	642	2	11.5089	11.4933	4.6096
	643	1	11.5091	11.5028	9.2059
	644	2	11.4956	11.5066	13.8096
	645	2	11.503	11.4961	18.3993
	646	1	11.5037	11.5033	23.0014
	647	1	11.4931	11.4935	27.6013
	648	2	11.4971	11.5019	32.1986
	649	2	11.502	16.1029	-0.0091
	650	2	11.4978	16.1019	4.6
	651	1	11.4976	16.0954	9.2052
	652	1	11.497	16.1069	13.7949
	653	2	11.493	16.0951	18.4035
	654	2	11.4919	16.0949	22.9965
	655	2	11.4971	16.0922	27.5978
	656	2	11.4958	16.0967	32.1953
	657	2	11.5098	20.7004	0.0015
	658	2	11.4914	20.6922	4.6016
	659	2	11.4994	20.6953	9.201
	660	2	11.4906	20.6926	13.809
	661	2	11.4912	20.6993	18.4068
	662	2	11.4936	20.7093	22.9967
	663	1	11.4923	20.7026	27.5943
	664	1	11.493	20.7059	32.1993
	665	2	11.507	25.2967	-0.0054
	666	1	11.4964	25.3062	4.5987
	667	2	11.4938	25.3049	9.2081
	668	2	11.494	25.3081	13.8096
	669	2	11.4985	25.2984	18.4009
	670	1	11.4954	25.2945	23.0078
	671	2	11.5053	25.3058	27.6034
	672	2	11.5027	25.3087	32.1922
	673	1	11.5097	29.9088	0.002
	674	1	11.508	29.9008	4.5936
	675	2	11.5024	29.8902	9.203
	676	2	11.4944	29.9046	13.8084
	677	2	11.5052	29.906	18.394
	678	2	11.503	29.9015	23.0032
	679	2	11.5072	29.8977	27.5906
	680	2	11.4949	29.9092	32.203
	681	2	16.0926	2.302	-0.0016
	682	2	16.1008	2.3094	4.6034
	683	2	16.1035	2.3098	9.1986
	684	1	16.092	2.2926	13.8038
	685	2	16.0985	2.294	18.401
	686	2	16.1043	2.3046	23.0074
	687	1	16.1058	2.307	27.6027
	688	2	16.099	2.3077	32.1925
	689	2	16.1008	6.906	0.003
	690	2	16.0961	6.8997	4.6062
	691	1	16.1049	6.9062	9.1937
	692	2	16.0974	6.8901	13.8095
	693	2	16.1063	6.8985	18.4062
	694	2	16.1022	6.9097	23.0027
	695	1	16.0907	6.8944	27.6031
	696	1	16.0922	6.8925	32.2015
	697	2	16.106	11.4981	-0.0065
	698	2	16.0935	11.5054	4.5903
	699	2	16.1026	11.4967	9.2066
	700	1	16.0912	11.4995	13.8073
	701	1	16.0932	11.4965	18.4084
	702	1	16.0918	11.4954	23.0008
	703	1	16.0929	11.5051	27.603
	704	2	16.0937	11.4983	32.2026
	705	1	16.0906	16.0935	-0.0078
	706	2	16.0921	16.0968	4.5924
	707	1	16.0982	16.1007	9.2005
	708	1	16.0965	16.1073	13.7935
	709	2	16.0901	16.0943	18.3964
	710	2	16.1066	16.1019	22.9984
	711	2	16.0917	16.109	27.5919
	712	2	16.0958	16.1016	32.1966
	713	2	16.1096	20.7094	0.0002
	714	2	16.1096	20.6912	4.5935
	715	2	16.0901	20.7089	9.2056
	716	1	16.0909	20.6913	13.7959
	717	1	16.091	20.6911	18.3959
	718	1	16.0971	20.702	23.0015
	719	2	16.1071	20.6961	27.5927
	720	2	16.0999	20.6969	32.2025
	721	1	16.0926	25.3048	0.0033
	722	2	16.0905	25.307	4.606
	723	2	16.0922	25.3037	9.1902
	724	1	16.1084	25.292	13.7976
	725	2	16.0953	25.3067	18.401
	726	1	16.0997	25.3055	22.9995
	727	2	16.1028	25.3056	27.5992
	728	1	16.1024	25.295	32.1922
	729	1	16.1099	29.9057	-0.0092
	730	2	16.1041	29.8901	4.6029
	731	2	16.0971	29.8974	9.1908
	732	2	16.0929	29.9015	13.8044
	733	2	16.1053	29.895	18.3965
	734	1	16.0994	29.9095	23.0043
	735	2	16.1064	29.9025	27.6014
	736	2	16.0912	29.8974	32.1904
	737	2	20.7003	2.2948	0.005
	738	2	20.6909	2.3077	4.5969
	739	2	20.6957	2.3049	9.1908
	740	2	20.7003	2.3085	13.7978
	741	2	20.6939	2.3014	18.4082
	742	2	20.6984	2.2977	22.9981
	743	2	20.7	2.3054	27.5985
	744	1	20.7048	2.3079	32.2031
	745	1	20.7	6.8904	0.0028
	746	2	20.6962	6.8953	4.6027
	747	2	20.7009	6.8908	9.1921
	748	2	20.7001	6.9047	13.7967
	749	1	20.706	6.9004	18.4087
	750	2	20.7059	6.9037	23.004
	751	1	20.7096	6.8964	27.601
	752	2	20.6987	6.8982	32.198
	753	2	20.7028	11.4905	-0.0082
	754	2	20.6976	11.5067	4.5959
	755	2	20.7019	11.5008	9.1994
	756	2	20.6987	11.4967	13.7906
	757	2	20.7069	11.4997	18.4076
	758	2	20.7082	11.5037	22.9904
	759	2	20.6913	11.5019	27.6043
	760	2	20.6975	11.4938	32.2075
	761	2	20.7054	16.1055	0.0031
	762	2	20.6981	16.0975	4.5938
	763	2	20.7032	16.1042	9.1957
	764	1	20.6994	16.1097	13.8092
	765	1	20.7024	16.1091	18.398
	766	2	20.6997	16.0922	22.9958
	767	2	20.6971	16.0918	27.6022
	768	2	20.7036	16.1041	32.2076
	769	2	20.6925	20.692	0.0061
	770	1	20.7018	20.6925	4.5949
	771	2	20.7088	20.6911	9.2083
	772	2	20.6949	20.7079	13.7974
	773	2	20.6964	20.6994	18.3946
	774	1	20.6992	20.6972	23.0078
	775	2	20.6922	20.7067	27.5989
	776	2	20.6991	20.7	32.1978
	777	1	20.7042	25.3077	0.0058
	778	1	20.7024	25.3003	4.6056
	779	2	20.7003	25.3022	9.1912
	780	1	20.7086	25.295	13.8005
	781	2	20.6991	25.2984	18.4066
	782	2	20.6948	25.3085	23.0058
	783	1	20.6925	25.2974	27.6034
	784	2	20.7072	25.2936	32.2028
	785	2	20.693	29.9064	-0.0014
	786	2	20.7038	29.8946	4.6042
	787	2	20.693	29.8968	9.209
	788	2	20.6965	29.8942	13.8089
	789	1	20.7093	29.91	18.403
	790	2	20.7009	29.906	22.9979
	791	1	20.7028	29.893	27.5956
	792	2	20.7023	29.8996	32.1906
	793	1	25.2926	2.2928	-0.001
	794	1	25.303	2.305	4.6008
	795	1	25.3031	2.2975	9.1935
	796	2	25.2935	2.3053	13.7954
	797	2	25.3023	2.305	18.4032
	798	1	25.3028	2.2964	22.9963
	799	2	25.2967	2.2996	27.5914
	800	2	25.2994	2.2978	32.1976
	801	1	25.3018	6.9003	-0.0065
	802	1	25.3042	6.9017	4.6008
	803	1	25.3051	6.9075	9.2063
	804	2	25.3072	6.9025	13.7983
	805	2	25.306	6.9077	18.4043
	806	1	25.2949	6.89	22.9932
	807	2	25.3008	6.8906	27.6058
	808	2	25.3021	6.8969	32.194
	809	1	25.2948	11.4974	-0.004
	810	2	25.3004	11.5089	4.6057
	811	1	25.304	11.4902	9.193
	812	2	25.3088	11.4984	13.7927
	813	2	25.2993	11.5053	18.3997
	814	2	25.3019	11.5088	23.0081
	815	2	25.3025	11.5055	27.6005
	816	1	25.3034	11.5033	32.1957
	817	2	25.3044	16.1076	-0.0096
	818	1	25.3065	16.0973	4.6041
	819	2	25.2916	16.1096	9.1999
	820	1	25.2961	16.0985	13.794
	821	2	25.3003	16.0997	18.4029
	822	2	25.3005	16.0904	22.9937
	823	2	25.2903	16.0978	27.6042
	824	2	25.2999	16.1092	32.1944
	825	1	25.2923	20.6936	-0.0041
	826	2	25.2965	20.7022	4.6048
	827	2	25.3047	20.7068	9.1978
	828	2	25.3006	20.707	13.8082
	829	2	25.307	20.6974	18.3956
	830	2	25.3008	20.6956	22.9913
	831	1	25.3049	20.7024	27.5922
	832	2	25.303	20.7069	32.2049
	833	2	25.302	25.2935	0.0079
	834	2	25.2983	25.2982	4.598
	835	1	25.296	25.2969	9.1943
	836	2	25.2922	25.2937	13.8059
	837	1	25.3012	25.2913	18.3915
	838	2	25.2936	25.3075	22.991
	839	2	25.3094	25.2962	27.6081
	840	2	25.2949	25.3091	32.1965
	841	2	25.2926	29.898	0.0066
	842	2	25.3041	29.8902	4.5955
	843	2	25.2906	29.8944	9.2025
	844	2	25.3061	29.903	13.7938
	845	1	25.3084	29.9037	18.3996
	846	2	25.3055	29.9016	22.9932
	847	1	25.3007	29.8921	27.6066
	848	2	25.293	29.8973	32.2088
	849	2	29.8924	2.2975	-0.0069
	850	2	29.9071	2.3063	4.5984
	851	1	29.9069	2.3088	9.1952
	852	2	29.9093	2.3092	13.7971
	853	2	29.8939	2.2902	18.4009
	854	1	29.8992	2.2934	22.9955
	855	2	29.9071	2.3041	27.5968
	856	2	29.8908	2.3053	32.1952
	857	2	29.8905	6.8913	-0.0037
	858	2	29.8962	6.8989	4.5908
	859	1	29.9039	6.9088	9.1981
	860	1	29.8928	6.8933	13.7957
	861	2	29.8983	6.8985	18.3976
	862	2	29.908	6.8911	22.9961
	863	1	29.9011	6.9082	27.6012
	864	2	29.905	6.907	32.2047
	865	1	29.896	11.5081	-0.0072
	866	2	29.9042	11.5028	4.591
	867	1	29.8906	11.4907	9.2012
	868	2	29.9094	11.5014	13.79
	869	2	29.8987	11.5007	18.3937
	870	1	29.8969	11.4982	23.0095
	871	1	29.8972	11.5022	27.6027
	872	2	29.8996	11.4969	32.1961
	873	1	29.8967	16.1075	-0.0083
	874	1	29.8963	16.1057	4.5913
	875	1	29.891	16.0982	9.1992
	876	1	29.8921	16.0944	13.8041
	877	1	29.8979	16.0978	18.4048
	878	2	29.8979	16.0973	23.0082
	879	2	29.9047	16.1054	27.605
	880	1	29.9066	16.1054	32.1938
	881	1	29.9038	20.6966	0.0063
	882	2	29.8902	20.6952	4.6014
	883	2	29.9065	20.7003	9.1951
	884	2	29.8967	20.7095	13.7955
	885	2	29.9064	20.702	18.3943
	886	1	29.9094	20.7084	23.0087
	887	2	29.9079	20.6935	27.595
	888	2	29.9027	20.7068	32.2088
	889	2	29.899	25.2932	0.0022
	890	2	29.8903	25.2988	4.5939
	891	1	29.8978	25.3022	9.205
	892	1	29.8936	25.2941	13.8051
	893	2	29.8925	25.2957	18.4041
	894	1	29.9033	25.3043	23.0053
	895	2	29.9097	25.3014	27.595
	896	1	29.8994	25.2941	32.1905
	897	2	29.895	29.8959	-0.0066
	898	2	29.907	29.8922	4.596
	899	2	29.8937	29.8982	9.2094
	900	1	29.9065	29.894	13.7913
	901	1	29.8965	29.894	18.4034
	902	2	29.9071	29.9015	22.995
	903	2	29.9043	29.8912	27.6094
	904	2	29.901	29.8912	32.195
	905	1	2.2956	-0.009	2.3074
	906	2	2.2958	0.003	6.9043
	907	2	2.2969	-0.0044	11.4928
	908	1	2.3003	0.0099	16.1081
	909	2	2.3043	-0.0047	20.7018
	910	2	2.2912	0.0031	25.2911
	911	2	2.3022	0.0026	29.9095
	912	2	2.2929	4.6054	2.3052
	913	2	2.2934	4.593	6.9044
	914	2	2.299	4.5919	11.4916
	915	2	2.2925	4.6036	16.0953
	916	2	2.3003	4.593	20.6927
	917	2	2.3063	4.5967	25.3014
	918	1	2.3017	4.5955	29.8975
	919	2	2.2945	9.1967	2.2933
	920	1	2.3024	9.1951	6.9072
	921	2	2.3033	9.207	11.501
	922	1	2.2932	9.2094	16.0965
	923	2	2.3098	9.1958	20.7089
	924	1	2.3006	9.2028	25.2984
	925	1	2.2955	9.2058	29.9069
	926	2	2.3016	13.7933	2.2958
	927	2	2.3015	13.7903	6.892
	928	2	2.304	13.801	11.5054
	929	2	2.3085	13.8097	16.101
	930	2	2.2984	13.7948	20.7072
	931	1	2.2967	13.8079	25.3038
	932	1	2.2901	13.8035	29.9007
	933	2	2.309	18.3945	2.2939
	934	2	2.2969	18.3918	6.892
	935	1	2.308	18.396	11.5078
	936	1	2.2983	18.4089	16.0921
	937	2	2.2938	18.3906	20.7001
	938	1	2.3009	18.4076	25.3068
	939	2	2.3038	18.3929	29.9072
	940	1	2.2968	22.9957	2.2931
	941	2	2.2992	22.9948	6.909
	942	1	2.2969	22.9932	11.5079
	943	2	2.3088	22.9916	16.0963
	944	2	2.3071	22.9962	20.7032
	945	2	2.2973	22.9994	25.2981
	946	2	2.2919	23.0089	29.9088
	947	2	2.2908	27.5921	2.307
	948	1	2.3002	27.6045	6.8947
	949	2	2.3034	27.6062	11.5053
	950	2	2.2903	27.5975	16.0978
	951	2	2.3097	27.6076	20.707
	952	1	2.31	27.5952	25.292
	953	2	2.2954	27.5993	29.9048
	954	1	2.2932	32.2045	2.3017
	955	1	2.293	32.2074	6.8957
	956	2	2.293	32.1999	11.5035
	957	1	2.3008	32.194	16.0906
	958	1	2.3044	32.2019	20.7033
	959	1	2.3052	32.193	25.3097
	960	2	2.3035	32.2083	29.9045
	961	2	6.8938	0.0025	2.3096
	962	2	6.8919	0.0093	6.904
	963	2	6.8969	-0.0085	11.5073
	964	1	6.9096	-0.002	16.1036
	965	2	6.892	-0.0071	20.7069
	966	2	6.8938	0.0041	25.3071
	967	2	6.9033	-0.0017	29.9094
	968	2	6.899	4.6051	2.2934
	969	2	6.8949	4.5915	6.8981
	970	1	6.8943	4.5981	11.5027
	971	1	6.906	4.6098	16.1068
	972	2	6.9068	4.5997	20.709
	973	1	6.9035	4.6045	25.296
	974	2	6.8994	4.5944	29.8979
	975	2	6.8938	9.207	2.2947
	976	1	6.9084	9.19	6.9099
	977	2	6.8948	9.2099	11.5074
	978	2	6.9061	9.2048	16.1094
	979	2	6.9032	9.2086	20.7034
	980	2	6.8935	9.201	25.3021
	981	2	6.9076	9.1901	29.9016
	982	1	6.89	13.8099	2.3005
	983	2	6.898	13.7907	6.9086
	984	1	6.8946	13.808	11.4998
	985	2	6.9018	13.7987	16.1028
	986	1	6.9023	13.791	20.6993
	987	2	6.9053	13.8025	25.2955
	988	2	6.9041	13.8031	29.8903
	989	2	6.8931	18.3913	2.3092
	990	1	6.9072	18.3904	6.891
	991	2	6.8929	18.3999	11.4996
	992	1	6.9054	18.3921	16.101
	993	2	6.902	18.3917	20.7086
	994	1	6.9067	18.3901	25.3067
	995	1	6.9013	18.3942	29.9031
	996	2	6.9075	22.9926	2.3035
	997	1	6.9034	22.9947	6.9005
	998	2	6.8908	23.0043	11.5044
	999	2	6.9037	23.0079	16.0992
	1000	1	6.8913	22.993	20.7072
	1001	1	6.8981	23.0093	25.3074
	1002	1	6.904	22.9973	29.8979
	1003	1	6.9058	27.5959	2.2931
	1004	2	6.9034	27.5985	6.8983
	1005	1	6.9049	27.5914	11.4955
	1006	2	6.9036	27.5959	16.1085
	1007	2	6.9099	27.599	20.6958
	1008	1	6.9007	27.5995	25.2978