Nickle Copper Simulation

14 	atoms
0 	bonds
0 	angles
0 	dihedrals
0 	impropers

2	atom types
0	bond types
0	angle types
0	dihedral types
0	improper types

-0.02	4.62	xlo xhi
-0.02	4.62	ylo yhi
-0.02	4.62	zlo zhi

Atoms

	1	2	-0.0084	0.002	0.0028
	2	2	0.0015	0.0012	4.6092
	3	2	0.0039	4.6068	0.0009
	4	2	-0.0093	4.599	4.5994
	5	2	4.5944	-0.0014	0.0008
	6	2	4.6003	-0.0002	4.6008
	7	2	4.6003	4.6059	-0.0033
	8	2	4.5938	4.5948	4.6019
	9	2	2.2913	2.3027	-0.0076
	10	1	2.3036	2.3042	4.6034
	11	2	2.3077	-0.0051	2.2914
	12	2	2.3018	4.6042	2.2956
	13	1	0.0087	2.2965	2.2908
	14	2	4.6083	2.3078	2.295

Velocities

	1	0.0	0.0	0.0
	2	0.0	0.0	0.0
	3	0.0	0.0	0.0
	4	0.0	0.0	0.0
	5	0.0	0.0	0.0
	6	0.0	0.0	0.0
	7	0.0	0.0	0.0
	8	0.0	0.0	0.0
	9	0.0	0.0	0.0
	10	0.0	0.0	0.0
	11	0.0	0.0	0.0
	12	0.0	0.0	0.0
	13	0.0	0.0	0.0
	14	-0.0	-0.0	-0.0

