LAMMPS (5 Jun 2019)
# Changing Volume to measure bulk modulus

#----------------Initialize Simulation---------------
clear

log log.Bulkmod
