CuNi atom datafile for lammps scripts 

500 atoms
2 atom types
0.0 18.15 xlo xhi
0.0 18.15 ylo yhi
0.0 18.15 zlo zhi
0.0 0.0 0.0 xy xz yz

Atoms

1 2 0.0 0.0 0.0
2 1 1.815 1.815 0.0
3 2 1.815 0.0 1.815
4 1 0.0 1.815 1.815
5 2 0.0 0.0 3.63
6 2 1.815 1.815 3.63
7 1 1.815 0.0 5.445
8 1 0.0 1.815 5.445
9 1 0.0 0.0 7.26
10 1 1.815 1.815 7.26
11 1 1.815 0.0 9.075
12 1 0.0 1.815 9.075
13 1 0.0 0.0 10.89
14 1 1.815 1.815 10.89
15 1 1.815 0.0 12.705
16 1 0.0 1.815 12.705
17 1 0.0 0.0 14.52
18 2 1.815 1.815 14.52
19 2 1.815 0.0 16.335
20 2 0.0 1.815 16.335
21 2 0.0 3.63 0.0
22 1 1.815 5.445 0.0
23 1 1.815 3.63 1.815
24 1 0.0 5.445 1.815
25 1 0.0 3.63 3.63
26 2 1.815 5.445 3.63
27 2 1.815 3.63 5.445
28 1 0.0 5.445 5.445
29 2 0.0 3.63 7.26
30 1 1.815 5.445 7.26
31 2 1.815 3.63 9.075
32 1 0.0 5.445 9.075
33 1 0.0 3.63 10.89
34 2 1.815 5.445 10.89
35 1 1.815 3.63 12.705
36 1 0.0 5.445 12.705
37 2 0.0 3.63 14.52
38 1 1.815 5.445 14.52
39 1 1.815 3.63 16.335
40 1 0.0 5.445 16.335
41 2 0.0 7.26 0.0
42 2 1.815 9.075 0.0
43 1 1.815 7.26 1.815
44 2 0.0 9.075 1.815
45 1 0.0 7.26 3.63
46 1 1.815 9.075 3.63
47 2 1.815 7.26 5.445
48 2 0.0 9.075 5.445
49 1 0.0 7.26 7.26
50 1 1.815 9.075 7.26
51 1 1.815 7.26 9.075
52 1 0.0 9.075 9.075
53 2 0.0 7.26 10.89
54 1 1.815 9.075 10.89
55 2 1.815 7.26 12.705
56 1 0.0 9.075 12.705
57 1 0.0 7.26 14.52
58 2 1.815 9.075 14.52
59 1 1.815 7.26 16.335
60 1 0.0 9.075 16.335
61 1 0.0 10.89 0.0
62 1 1.815 12.705 0.0
63 1 1.815 10.89 1.815
64 2 0.0 12.705 1.815
65 1 0.0 10.89 3.63
66 2 1.815 12.705 3.63
67 1 1.815 10.89 5.445
68 1 0.0 12.705 5.445
69 1 0.0 10.89 7.26
70 1 1.815 12.705 7.26
71 2 1.815 10.89 9.075
72 1 0.0 12.705 9.075
73 2 0.0 10.89 10.89
74 1 1.815 12.705 10.89
75 2 1.815 10.89 12.705
76 1 0.0 12.705 12.705
77 2 0.0 10.89 14.52
78 1 1.815 12.705 14.52
79 1 1.815 10.89 16.335
80 1 0.0 12.705 16.335
81 1 0.0 14.52 0.0
82 1 1.815 16.335 0.0
83 1 1.815 14.52 1.815
84 1 0.0 16.335 1.815
85 1 0.0 14.52 3.63
86 1 1.815 16.335 3.63
87 1 1.815 14.52 5.445
88 2 0.0 16.335 5.445
89 2 0.0 14.52 7.26
90 1 1.815 16.335 7.26
91 1 1.815 14.52 9.075
92 1 0.0 16.335 9.075
93 1 0.0 14.52 10.89
94 1 1.815 16.335 10.89
95 1 1.815 14.52 12.705
96 1 0.0 16.335 12.705
97 2 0.0 14.52 14.52
98 1 1.815 16.335 14.52
99 1 1.815 14.52 16.335
100 1 0.0 16.335 16.335
101 1 3.63 0.0 0.0
102 2 5.445 1.815 0.0
103 1 5.445 0.0 1.815
104 1 3.63 1.815 1.815
105 1 3.63 0.0 3.63
106 1 5.445 1.815 3.63
107 1 5.445 0.0 5.445
108 1 3.63 1.815 5.445
109 1 3.63 0.0 7.26
110 2 5.445 1.815 7.26
111 1 5.445 0.0 9.075
112 1 3.63 1.815 9.075
113 1 3.63 0.0 10.89
114 1 5.445 1.815 10.89
115 1 5.445 0.0 12.705
116 1 3.63 1.815 12.705
117 1 3.63 0.0 14.52
118 1 5.445 1.815 14.52
119 2 5.445 0.0 16.335
120 1 3.63 1.815 16.335
121 1 3.63 3.63 0.0
122 1 5.445 5.445 0.0
123 1 5.445 3.63 1.815
124 1 3.63 5.445 1.815
125 2 3.63 3.63 3.63
126 1 5.445 5.445 3.63
127 1 5.445 3.63 5.445
128 2 3.63 5.445 5.445
129 1 3.63 3.63 7.26
130 1 5.445 5.445 7.26
131 2 5.445 3.63 9.075
132 2 3.63 5.445 9.075
133 2 3.63 3.63 10.89
134 2 5.445 5.445 10.89
135 2 5.445 3.63 12.705
136 2 3.63 5.445 12.705
137 1 3.63 3.63 14.52
138 2 5.445 5.445 14.52
139 2 5.445 3.63 16.335
140 2 3.63 5.445 16.335
141 2 3.63 7.26 0.0
142 2 5.445 9.075 0.0
143 1 5.445 7.26 1.815
144 2 3.63 9.075 1.815
145 1 3.63 7.26 3.63
146 1 5.445 9.075 3.63
147 1 5.445 7.26 5.445
148 2 3.63 9.075 5.445
149 2 3.63 7.26 7.26
150 1 5.445 9.075 7.26
151 1 5.445 7.26 9.075
152 1 3.63 9.075 9.075
153 1 3.63 7.26 10.89
154 1 5.445 9.075 10.89
155 1 5.445 7.26 12.705
156 1 3.63 9.075 12.705
157 1 3.63 7.26 14.52
158 1 5.445 9.075 14.52
159 1 5.445 7.26 16.335
160 1 3.63 9.075 16.335
161 2 3.63 10.89 0.0
162 1 5.445 12.705 0.0
163 1 5.445 10.89 1.815
164 1 3.63 12.705 1.815
165 1 3.63 10.89 3.63
166 1 5.445 12.705 3.63
167 1 5.445 10.89 5.445
168 1 3.63 12.705 5.445
169 1 3.63 10.89 7.26
170 1 5.445 12.705 7.26
171 1 5.445 10.89 9.075
172 1 3.63 12.705 9.075
173 1 3.63 10.89 10.89
174 2 5.445 12.705 10.89
175 1 5.445 10.89 12.705
176 1 3.63 12.705 12.705
177 1 3.63 10.89 14.52
178 1 5.445 12.705 14.52
179 1 5.445 10.89 16.335
180 2 3.63 12.705 16.335
181 1 3.63 14.52 0.0
182 1 5.445 16.335 0.0
183 1 5.445 14.52 1.815
184 2 3.63 16.335 1.815
185 2 3.63 14.52 3.63
186 1 5.445 16.335 3.63
187 2 5.445 14.52 5.445
188 1 3.63 16.335 5.445
189 1 3.63 14.52 7.26
190 2 5.445 16.335 7.26
191 1 5.445 14.52 9.075
192 1 3.63 16.335 9.075
193 1 3.63 14.52 10.89
194 1 5.445 16.335 10.89
195 1 5.445 14.52 12.705
196 1 3.63 16.335 12.705
197 2 3.63 14.52 14.52
198 2 5.445 16.335 14.52
199 2 5.445 14.52 16.335
200 1 3.63 16.335 16.335
201 1 7.26 0.0 0.0
202 2 9.075 1.815 0.0
203 1 9.075 0.0 1.815
204 2 7.26 1.815 1.815
205 2 7.26 0.0 3.63
206 2 9.075 1.815 3.63
207 1 9.075 0.0 5.445
208 1 7.26 1.815 5.445
209 2 7.26 0.0 7.26
210 1 9.075 1.815 7.26
211 1 9.075 0.0 9.075
212 2 7.26 1.815 9.075
213 1 7.26 0.0 10.89
214 1 9.075 1.815 10.89
215 1 9.075 0.0 12.705
216 1 7.26 1.815 12.705
217 1 7.26 0.0 14.52
218 1 9.075 1.815 14.52
219 1 9.075 0.0 16.335
220 2 7.26 1.815 16.335
221 1 7.26 3.63 0.0
222 2 9.075 5.445 0.0
223 1 9.075 3.63 1.815
224 2 7.26 5.445 1.815
225 1 7.26 3.63 3.63
226 1 9.075 5.445 3.63
227 1 9.075 3.63 5.445
228 2 7.26 5.445 5.445
229 1 7.26 3.63 7.26
230 2 9.075 5.445 7.26
231 1 9.075 3.63 9.075
232 1 7.26 5.445 9.075
233 2 7.26 3.63 10.89
234 1 9.075 5.445 10.89
235 1 9.075 3.63 12.705
236 1 7.26 5.445 12.705
237 1 7.26 3.63 14.52
238 1 9.075 5.445 14.52
239 1 9.075 3.63 16.335
240 1 7.26 5.445 16.335
241 2 7.26 7.26 0.0
242 1 9.075 9.075 0.0
243 2 9.075 7.26 1.815
244 2 7.26 9.075 1.815
245 1 7.26 7.26 3.63
246 1 9.075 9.075 3.63
247 2 9.075 7.26 5.445
248 1 7.26 9.075 5.445
249 1 7.26 7.26 7.26
250 1 9.075 9.075 7.26
251 1 9.075 7.26 9.075
252 2 7.26 9.075 9.075
253 2 7.26 7.26 10.89
254 1 9.075 9.075 10.89
255 1 9.075 7.26 12.705
256 1 7.26 9.075 12.705
257 2 7.26 7.26 14.52
258 1 9.075 9.075 14.52
259 1 9.075 7.26 16.335
260 2 7.26 9.075 16.335
261 2 7.26 10.89 0.0
262 1 9.075 12.705 0.0
263 2 9.075 10.89 1.815
264 2 7.26 12.705 1.815
265 1 7.26 10.89 3.63
266 1 9.075 12.705 3.63
267 1 9.075 10.89 5.445
268 1 7.26 12.705 5.445
269 2 7.26 10.89 7.26
270 1 9.075 12.705 7.26
271 1 9.075 10.89 9.075
272 1 7.26 12.705 9.075
273 1 7.26 10.89 10.89
274 1 9.075 12.705 10.89
275 2 9.075 10.89 12.705
276 2 7.26 12.705 12.705
277 1 7.26 10.89 14.52
278 1 9.075 12.705 14.52
279 1 9.075 10.89 16.335
280 2 7.26 12.705 16.335
281 2 7.26 14.52 0.0
282 2 9.075 16.335 0.0
283 2 9.075 14.52 1.815
284 2 7.26 16.335 1.815
285 1 7.26 14.52 3.63
286 1 9.075 16.335 3.63
287 1 9.075 14.52 5.445
288 1 7.26 16.335 5.445
289 1 7.26 14.52 7.26
290 1 9.075 16.335 7.26
291 1 9.075 14.52 9.075
292 1 7.26 16.335 9.075
293 2 7.26 14.52 10.89
294 1 9.075 16.335 10.89
295 1 9.075 14.52 12.705
296 1 7.26 16.335 12.705
297 2 7.26 14.52 14.52
298 1 9.075 16.335 14.52
299 2 9.075 14.52 16.335
300 1 7.26 16.335 16.335
301 2 10.89 0.0 0.0
302 1 12.705 1.815 0.0
303 1 12.705 0.0 1.815
304 1 10.89 1.815 1.815
305 1 10.89 0.0 3.63
306 1 12.705 1.815 3.63
307 1 12.705 0.0 5.445
308 1 10.89 1.815 5.445
309 1 10.89 0.0 7.26
310 1 12.705 1.815 7.26
311 1 12.705 0.0 9.075
312 1 10.89 1.815 9.075
313 1 10.89 0.0 10.89
314 1 12.705 1.815 10.89
315 1 12.705 0.0 12.705
316 1 10.89 1.815 12.705
317 1 10.89 0.0 14.52
318 2 12.705 1.815 14.52
319 1 12.705 0.0 16.335
320 2 10.89 1.815 16.335
321 2 10.89 3.63 0.0
322 1 12.705 5.445 0.0
323 1 12.705 3.63 1.815
324 1 10.89 5.445 1.815
325 1 10.89 3.63 3.63
326 1 12.705 5.445 3.63
327 1 12.705 3.63 5.445
328 2 10.89 5.445 5.445
329 1 10.89 3.63 7.26
330 2 12.705 5.445 7.26
331 2 12.705 3.63 9.075
332 1 10.89 5.445 9.075
333 1 10.89 3.63 10.89
334 1 12.705 5.445 10.89
335 1 12.705 3.63 12.705
336 1 10.89 5.445 12.705
337 1 10.89 3.63 14.52
338 1 12.705 5.445 14.52
339 2 12.705 3.63 16.335
340 1 10.89 5.445 16.335
341 1 10.89 7.26 0.0
342 1 12.705 9.075 0.0
343 1 12.705 7.26 1.815
344 1 10.89 9.075 1.815
345 1 10.89 7.26 3.63
346 1 12.705 9.075 3.63
347 1 12.705 7.26 5.445
348 1 10.89 9.075 5.445
349 2 10.89 7.26 7.26
350 2 12.705 9.075 7.26
351 2 12.705 7.26 9.075
352 1 10.89 9.075 9.075
353 1 10.89 7.26 10.89
354 1 12.705 9.075 10.89
355 1 12.705 7.26 12.705
356 2 10.89 9.075 12.705
357 2 10.89 7.26 14.52
358 1 12.705 9.075 14.52
359 1 12.705 7.26 16.335
360 1 10.89 9.075 16.335
361 1 10.89 10.89 0.0
362 2 12.705 12.705 0.0
363 1 12.705 10.89 1.815
364 2 10.89 12.705 1.815
365 1 10.89 10.89 3.63
366 1 12.705 12.705 3.63
367 2 12.705 10.89 5.445
368 2 10.89 12.705 5.445
369 2 10.89 10.89 7.26
370 1 12.705 12.705 7.26
371 1 12.705 10.89 9.075
372 1 10.89 12.705 9.075
373 1 10.89 10.89 10.89
374 1 12.705 12.705 10.89
375 1 12.705 10.89 12.705
376 2 10.89 12.705 12.705
377 1 10.89 10.89 14.52
378 2 12.705 12.705 14.52
379 2 12.705 10.89 16.335
380 2 10.89 12.705 16.335
381 1 10.89 14.52 0.0
382 2 12.705 16.335 0.0
383 1 12.705 14.52 1.815
384 1 10.89 16.335 1.815
385 2 10.89 14.52 3.63
386 1 12.705 16.335 3.63
387 2 12.705 14.52 5.445
388 1 10.89 16.335 5.445
389 2 10.89 14.52 7.26
390 1 12.705 16.335 7.26
391 1 12.705 14.52 9.075
392 1 10.89 16.335 9.075
393 1 10.89 14.52 10.89
394 1 12.705 16.335 10.89
395 2 12.705 14.52 12.705
396 2 10.89 16.335 12.705
397 2 10.89 14.52 14.52
398 1 12.705 16.335 14.52
399 2 12.705 14.52 16.335
400 1 10.89 16.335 16.335
401 2 14.52 0.0 0.0
402 2 16.335 1.815 0.0
403 2 16.335 0.0 1.815
404 1 14.52 1.815 1.815
405 1 14.52 0.0 3.63
406 2 16.335 1.815 3.63
407 1 16.335 0.0 5.445
408 2 14.52 1.815 5.445
409 1 14.52 0.0 7.26
410 1 16.335 1.815 7.26
411 1 16.335 0.0 9.075
412 2 14.52 1.815 9.075
413 1 14.52 0.0 10.89
414 1 16.335 1.815 10.89
415 1 16.335 0.0 12.705
416 1 14.52 1.815 12.705
417 2 14.52 0.0 14.52
418 2 16.335 1.815 14.52
419 1 16.335 0.0 16.335
420 2 14.52 1.815 16.335
421 1 14.52 3.63 0.0
422 1 16.335 5.445 0.0
423 1 16.335 3.63 1.815
424 2 14.52 5.445 1.815
425 1 14.52 3.63 3.63
426 2 16.335 5.445 3.63
427 2 16.335 3.63 5.445
428 1 14.52 5.445 5.445
429 1 14.52 3.63 7.26
430 1 16.335 5.445 7.26
431 1 16.335 3.63 9.075
432 1 14.52 5.445 9.075
433 1 14.52 3.63 10.89
434 2 16.335 5.445 10.89
435 1 16.335 3.63 12.705
436 1 14.52 5.445 12.705
437 1 14.52 3.63 14.52
438 1 16.335 5.445 14.52
439 1 16.335 3.63 16.335
440 1 14.52 5.445 16.335
441 1 14.52 7.26 0.0
442 1 16.335 9.075 0.0
443 1 16.335 7.26 1.815
444 2 14.52 9.075 1.815
445 2 14.52 7.26 3.63
446 1 16.335 9.075 3.63
447 1 16.335 7.26 5.445
448 1 14.52 9.075 5.445
449 2 14.52 7.26 7.26
450 1 16.335 9.075 7.26
451 1 16.335 7.26 9.075
452 1 14.52 9.075 9.075
453 1 14.52 7.26 10.89
454 1 16.335 9.075 10.89
455 1 16.335 7.26 12.705
456 1 14.52 9.075 12.705
457 2 14.52 7.26 14.52
458 1 16.335 9.075 14.52
459 1 16.335 7.26 16.335
460 1 14.52 9.075 16.335
461 1 14.52 10.89 0.0
462 1 16.335 12.705 0.0
463 1 16.335 10.89 1.815
464 2 14.52 12.705 1.815
465 2 14.52 10.89 3.63
466 2 16.335 12.705 3.63
467 1 16.335 10.89 5.445
468 1 14.52 12.705 5.445
469 2 14.52 10.89 7.26
470 1 16.335 12.705 7.26
471 1 16.335 10.89 9.075
472 2 14.52 12.705 9.075
473 2 14.52 10.89 10.89
474 2 16.335 12.705 10.89
475 1 16.335 10.89 12.705
476 2 14.52 12.705 12.705
477 1 14.52 10.89 14.52
478 1 16.335 12.705 14.52
479 2 16.335 10.89 16.335
480 1 14.52 12.705 16.335
481 1 14.52 14.52 0.0
482 1 16.335 16.335 0.0
483 2 16.335 14.52 1.815
484 2 14.52 16.335 1.815
485 2 14.52 14.52 3.63
486 1 16.335 16.335 3.63
487 1 16.335 14.52 5.445
488 1 14.52 16.335 5.445
489 2 14.52 14.52 7.26
490 2 16.335 16.335 7.26
491 2 16.335 14.52 9.075
492 2 14.52 16.335 9.075
493 2 14.52 14.52 10.89
494 1 16.335 16.335 10.89
495 1 16.335 14.52 12.705
496 2 14.52 16.335 12.705
497 1 14.52 14.52 14.52
498 1 16.335 16.335 14.52
499 1 16.335 14.52 16.335
500 1 14.52 16.335 16.335
