
units metal
dimension 3
boundary p p p
atom_style atomic
#atom_modify map array

#----------------- CREATE ATOMS ------------------------
#region simR block 0 8.092 0 4.046 0 4.046 #use change_box to reshape sim box
#region solidBase block 0 4.046 0 4.046 0 4.046 #create_box reshapes sim box to fit new atoms
#create_box 2 solidBase
read_data data.atoms group solAtoms
  triclinic box = (0 0 0) to (18.15 18.15 18.15) with tilt (0 0 0)
  1 by 1 by 1 MPI processor grid
  reading atoms ...
  500 atoms
  read_data CPU = 0.002988 secs
#read_data atom.data add append
#group baseAtoms region solidBase


# --------- DEFINE INTERATOMIC POTENTIAL ---------

pair_style eam/alloy
pair_coeff * * CuNi.eam.alloy Ni Cu
Reading potential file CuNi.eam.alloy with DATE: 2014-07-11
neighbor .05 bin
neigh_modify delay 10 check yes

# -------------- DEFFINE SETTINGS ----------------

#COMPUTES (do in Pylammps)

#---------------------- RUN ------------------------

#MINIMIZATION/RUN (do in pylammps)

info system
region solBase block 0 3.63 0 3.63 0 3.63 side in
group solAtoms region solBase
500 atoms in group solAtoms
change_box all x final -7.26 72.6 y final 0.0 18.15 z final 0.0 18.15
  triclinic box = (-7.26 0 0) to (72.6 18.15 18.15) with tilt (0 0 0)
  triclinic box = (-7.26 0 0) to (72.6 18.15 18.15) with tilt (0 0 0)
  triclinic box = (-7.26 0 0) to (72.6 18.15 18.15) with tilt (0 0 0)
region liquidBox block 25.41 43.56 0 18.15 0 18.15 side in
create_atoms 2 random 500 1 liquidBox
Created 500 atoms
  create_atoms CPU = 0.0004 secs
group liquidAtoms region liquidBox
500 atoms in group liquidAtoms
reset_timestep 0
timestep 0.001
thermo 10
thermo_style custom step atoms temp press etotal
dump 2 all custom 10 pos.XYZ id x y z
minimize 1e-7 1e-7 10000 10000
WARNING: Using 'neigh_modify every 1 delay 0 check yes' setting during minimization (../min.cpp:168)
Neighbor list info ...
  update every 1 steps, delay 0 steps, check yes
  max neighbors/atom: 2000, page size: 100000
  master list distance cutoff = 6.44433
  ghost atom cutoff = 6.44433
  binsize = 3.22217, bins = 25 6 6
  1 neighbor lists, perpetual/occasional/extra = 1 0 0
  (1) pair eam/alloy, perpetual
      attributes: half, newton on
      pair build: half/bin/newton/tri
      stencil: half/bin/3d/newton/tri
      bin: standard
Per MPI rank memory allocation (min/avg/max) = 5.819 | 5.819 | 5.819 Mbytes
Step Atoms Temp Press TotEng 
       0     1000            0    483301.76    6735.7472 
      10     1000            0    276829.19   -1073.9019 
      20     1000            0    83330.946   -3020.4938 
      30     1000            0    12677.013     -3405.89 
      40     1000            0   -5672.5086   -3497.4805 
      50     1000            0   -11162.496   -3534.2188 
      60     1000            0   -13136.452   -3556.2353 
      70     1000            0   -13255.292    -3568.114 
      80     1000            0   -13306.993   -3573.9639 
      90     1000            0   -13395.141    -3577.753 
     100     1000            0   -13288.486   -3580.5411 
     110     1000            0   -13001.321   -3583.3099 
     120     1000            0   -12648.704   -3585.8899 
     130     1000            0    -12502.65   -3587.8837 
     140     1000            0   -12527.816    -3589.454 
     150     1000            0   -12420.833   -3590.0296 
     160     1000            0   -11618.971   -3590.6104 
     170     1000            0   -11975.695   -3591.4966 
     180     1000            0    -11925.06    -3592.115 
     190     1000            0   -11943.186    -3592.254 
     200     1000            0   -12032.425   -3592.3084 
     210     1000            0    -12090.64   -3592.3988 
     220     1000            0   -12385.082    -3592.535 
     230     1000            0   -12516.867   -3592.6088 
     240     1000            0   -12650.802   -3592.6733 
     250     1000            0   -12733.329   -3592.7704 
     260     1000            0   -12958.529   -3592.9413 
     270     1000            0    -12780.02   -3593.0416 
     280     1000            0   -12402.529   -3593.1852 
     290     1000            0   -12599.523   -3593.4449 
     300     1000            0   -12581.371   -3593.5339 
     310     1000            0   -12519.603   -3593.5767 
     320     1000            0    -12618.61   -3593.5979 
     330     1000            0   -12644.383   -3593.6045 
     340     1000            0   -12631.184   -3593.6085 
     343     1000            0   -12650.552   -3593.6096 
Loop time of 2.67629 on 1 procs for 343 steps with 1000 atoms

91.3% CPU use with 1 MPI tasks x no OpenMP threads

Minimization stats:
  Stopping criterion = energy tolerance
  Energy initial, next-to-last, final = 
         6735.74721534     -3593.60921399     -3593.60956866
  Force two-norm initial, final = 2888.97 0.0631651
  Force max component initial, final = 1036 0.0180035
  Final line search alpha, max atom move = 1 0.0180035
  Iterations, force evaluations = 343 591

MPI task timing breakdown:
Section |  min time  |  avg time  |  max time  |%varavg| %total
---------------------------------------------------------------
Pair    | 1.3187     | 1.3187     | 1.3187     |   0.0 | 49.27
Neigh   | 1.2653     | 1.2653     | 1.2653     |   0.0 | 47.28
Comm    | 0.031108   | 0.031108   | 0.031108   |   0.0 |  1.16
Output  | 0.035552   | 0.035552   | 0.035552   |   0.0 |  1.33
Modify  | 0          | 0          | 0          |   0.0 |  0.00
Other   |            | 0.02563    |            |       |  0.96

Nlocal:    1000 ave 1000 max 1000 min
Histogram: 1 0 0 0 0 0 0 0 0 0
Nghost:    1902 ave 1902 max 1902 min
Histogram: 1 0 0 0 0 0 0 0 0 0
Neighs:    38124 ave 38124 max 38124 min
Histogram: 1 0 0 0 0 0 0 0 0 0

Total # of neighbors = 38124
Ave neighs/atom = 38.124
Neighbor list builds = 562
Dangerous builds = 533
info groups
fix solTemp solAtoms nvt temp 600 600 0.1
fix liqTemp liquidAtoms nvt temp 3000 3000 0.1
run 400
Per MPI rank memory allocation (min/avg/max) = 4.694 | 4.694 | 4.694 Mbytes
Step Atoms Temp Press TotEng 
     343     1000            0   -12650.552   -3593.6096 
     350     1000 0.00011202036   -12650.562   -3593.6096 
     360     1000 0.00058651129    -12650.61   -3593.6096 
     370     1000 0.0012166488   -12650.694   -3593.6096 
     380     1000 0.0018270887   -12650.815   -3593.6096 
     390     1000 0.0024799416   -12650.976   -3593.6095 
     400     1000 0.0033634702   -12651.182   -3593.6095 
     410     1000 0.0045155281   -12651.434   -3593.6095 
     420     1000 0.0057533169   -12651.727   -3593.6095 
     430     1000 0.0068882815   -12652.057   -3593.6095 
     440     1000 0.0079479242    -12652.42   -3593.6094 
     450     1000 0.0091152233   -12652.813   -3593.6094 
     460     1000  0.010461963   -12653.234   -3593.6093 
     470     1000  0.011823105   -12653.677   -3593.6092 
     480     1000  0.012989352   -12654.132   -3593.6091 
     490     1000  0.013985266   -12654.594   -3593.6091 
     500     1000  0.015069832   -12655.058    -3593.609 
     510     1000    0.0164325   -12655.521   -3593.6089 
     520     1000  0.017952951   -12655.972   -3593.6087 
     530     1000  0.019338005   -12656.396   -3593.6086 
     540     1000  0.020486477   -12656.784   -3593.6085 
     550     1000  0.021631688   -12657.139   -3593.6083 
     560     1000  0.023069315   -12657.469   -3593.6081 
     570     1000  0.024797524   -12657.781    -3593.608 
     580     1000  0.026523843   -12658.068   -3593.6078 
     590     1000  0.028041728   -12658.337   -3593.6076 
     600     1000   0.02950414   -12658.597   -3593.6074 
     610     1000  0.031236352   -12658.855   -3593.6071 
     620     1000  0.033313151   -12659.112   -3593.6069 
     630     1000  0.035445189   -12659.354   -3593.6066 
     640     1000  0.037344896   -12659.564   -3593.6063 
     650     1000  0.039121614   -12659.741    -3593.606 
     660     1000  0.041182031   -12659.881   -3593.6057 
     670     1000  0.043724301   -12659.981   -3593.6054 
     680     1000   0.04645914   -12660.015    -3593.605 
     690     1000  0.048944742   -12659.959   -3593.6046 
     700     1000   0.05114923    -12659.81   -3593.6042 
     710     1000  0.053528947   -12659.567   -3593.6038 
     720     1000  0.056487045   -12659.218   -3593.6033 
     730     1000  0.059867458   -12658.748   -3593.6029 
     740     1000  0.063133064   -12658.131   -3593.6023 
     743     1000  0.064036111   -12657.913   -3593.6022 
Loop time of 0.737464 on 1 procs for 400 steps with 1000 atoms

Performance: 46.863 ns/day, 0.512 hours/ns, 542.399 timesteps/s
95.1% CPU use with 1 MPI tasks x no OpenMP threads

MPI task timing breakdown:
Section |  min time  |  avg time  |  max time  |%varavg| %total
---------------------------------------------------------------
Pair    | 0.68974    | 0.68974    | 0.68974    |   0.0 | 93.53
Neigh   | 0.002374   | 0.002374   | 0.002374   |   0.0 |  0.32
Comm    | 0.003682   | 0.003682   | 0.003682   |   0.0 |  0.50
Output  | 0.031566   | 0.031566   | 0.031566   |   0.0 |  4.28
Modify  | 0.008239   | 0.008239   | 0.008239   |   0.0 |  1.12
Other   |            | 0.001865   |            |       |  0.25

Nlocal:    1000 ave 1000 max 1000 min
Histogram: 1 0 0 0 0 0 0 0 0 0
Nghost:    1902 ave 1902 max 1902 min
Histogram: 1 0 0 0 0 0 0 0 0 0
Neighs:    38124 ave 38124 max 38124 min
Histogram: 1 0 0 0 0 0 0 0 0 0

Total # of neighbors = 38124
Ave neighs/atom = 38.124
Neighbor list builds = 1
Dangerous builds = 0
minimize 1e-4 1e-4 10000 10000
WARNING: Using 'neigh_modify every 1 delay 0 check yes' setting during minimization (../min.cpp:168)
Per MPI rank memory allocation (min/avg/max) = 5.819 | 5.819 | 5.819 Mbytes
Step Atoms Temp Press TotEng 
     743     1000  0.064036111   -12657.913   -3593.6022 
     744     1000  0.064036111   -12656.715   -3593.6025 
Loop time of 0.006508 on 1 procs for 1 steps with 1000 atoms

98.0% CPU use with 1 MPI tasks x no OpenMP threads

Minimization stats:
  Stopping criterion = energy tolerance
  Energy initial, next-to-last, final = 
        -3593.61045017     -3593.61045017     -3593.61076637
  Force two-norm initial, final = 0.0606767 0.084121
  Force max component initial, final = 0.0106349 0.0317074
  Final line search alpha, max atom move = 1 0.0317074
  Iterations, force evaluations = 1 2

MPI task timing breakdown:
Section |  min time  |  avg time  |  max time  |%varavg| %total
---------------------------------------------------------------
Pair    | 0.005686   | 0.005686   | 0.005686   |   0.0 | 87.37
Neigh   | 0          | 0          | 0          |   0.0 |  0.00
Comm    | 2.2e-05    | 2.2e-05    | 2.2e-05    |   0.0 |  0.34
Output  | 0          | 0          | 0          |   0.0 |  0.00
Modify  | 0          | 0          | 0          |   0.0 |  0.00
Other   |            | 0.0008     |            |       | 12.29

Nlocal:    1000 ave 1000 max 1000 min
Histogram: 1 0 0 0 0 0 0 0 0 0
Nghost:    1902 ave 1902 max 1902 min
Histogram: 1 0 0 0 0 0 0 0 0 0
Neighs:    38118 ave 38118 max 38118 min
Histogram: 1 0 0 0 0 0 0 0 0 0

Total # of neighbors = 38118
Ave neighs/atom = 38.118
Neighbor list builds = 0
Dangerous builds = 0
displace_atoms liquidAtoms move -0.363 0 0
run 20
Per MPI rank memory allocation (min/avg/max) = 4.694 | 4.694 | 4.694 Mbytes
Step Atoms Temp Press TotEng 
     744     1000  0.064036111   -12656.715   -3593.6025 
     750     1000  0.066490357   -12656.268   -3593.6022 
     760     1000  0.070036384   -12655.456   -3593.6016 
     764     1000  0.071165601   -12655.104   -3593.6014 
Loop time of 0.037054 on 1 procs for 20 steps with 1000 atoms

Performance: 46.635 ns/day, 0.515 hours/ns, 539.753 timesteps/s
95.7% CPU use with 1 MPI tasks x no OpenMP threads

MPI task timing breakdown:
Section |  min time  |  avg time  |  max time  |%varavg| %total
---------------------------------------------------------------
Pair    | 0.034942   | 0.034942   | 0.034942   |   0.0 | 94.30
Neigh   | 0          | 0          | 0          |   0.0 |  0.00
Comm    | 0.000165   | 0.000165   | 0.000165   |   0.0 |  0.45
Output  | 0.001493   | 0.001493   | 0.001493   |   0.0 |  4.03
Modify  | 0.000385   | 0.000385   | 0.000385   |   0.0 |  1.04
Other   |            | 6.9e-05    |            |       |  0.19

Nlocal:    1000 ave 1000 max 1000 min
Histogram: 1 0 0 0 0 0 0 0 0 0
Nghost:    1902 ave 1902 max 1902 min
Histogram: 1 0 0 0 0 0 0 0 0 0
Neighs:    38120 ave 38120 max 38120 min
Histogram: 1 0 0 0 0 0 0 0 0 0

Total # of neighbors = 38120
Ave neighs/atom = 38.12
Neighbor list builds = 0
Dangerous builds = 0
minimize 1e-4 1e-4 10000 10000
WARNING: Using 'neigh_modify every 1 delay 0 check yes' setting during minimization (../min.cpp:168)
Per MPI rank memory allocation (min/avg/max) = 5.819 | 5.819 | 5.819 Mbytes
Step Atoms Temp Press TotEng 
     764     1000  0.071165601   -12655.104   -3593.6014 
     765     1000  0.071165601   -12654.896   -3593.6016 
Loop time of 0.007077 on 1 procs for 1 steps with 1000 atoms

93.3% CPU use with 1 MPI tasks x no OpenMP threads

Minimization stats:
  Stopping criterion = energy tolerance
  Energy initial, next-to-last, final = 
        -3593.61054413     -3593.61054413     -3593.61074405
  Force two-norm initial, final = 0.0659243 0.0618096
  Force max component initial, final = 0.0175523 0.0204201
  Final line search alpha, max atom move = 1 0.0204201
  Iterations, force evaluations = 1 2

MPI task timing breakdown:
Section |  min time  |  avg time  |  max time  |%varavg| %total
---------------------------------------------------------------
Pair    | 0.006272   | 0.006272   | 0.006272   |   0.0 | 88.63
Neigh   | 0          | 0          | 0          |   0.0 |  0.00
Comm    | 2.9e-05    | 2.9e-05    | 2.9e-05    |   0.0 |  0.41
Output  | 0          | 0          | 0          |   0.0 |  0.00
Modify  | 0          | 0          | 0          |   0.0 |  0.00
Other   |            | 0.000776   |            |       | 10.97

Nlocal:    1000 ave 1000 max 1000 min
Histogram: 1 0 0 0 0 0 0 0 0 0
Nghost:    1902 ave 1902 max 1902 min
Histogram: 1 0 0 0 0 0 0 0 0 0
Neighs:    38115 ave 38115 max 38115 min
Histogram: 1 0 0 0 0 0 0 0 0 0

Total # of neighbors = 38115
Ave neighs/atom = 38.115
Neighbor list builds = 0
Dangerous builds = 0
displace_atoms liquidAtoms move -0.363 0 0
run 20
Per MPI rank memory allocation (min/avg/max) = 4.694 | 4.694 | 4.694 Mbytes
Step Atoms Temp Press TotEng 
     765     1000  0.071165601   -12654.896   -3593.6016 
     770     1000  0.073179711   -12654.445   -3593.6012 
     780     1000  0.076288585    -12653.44   -3593.6006 
     785     1000  0.077459681   -12652.886   -3593.6003 
Loop time of 0.040296 on 1 procs for 20 steps with 1000 atoms

Performance: 42.883 ns/day, 0.560 hours/ns, 496.327 timesteps/s
92.4% CPU use with 1 MPI tasks x no OpenMP threads

MPI task timing breakdown:
Section |  min time  |  avg time  |  max time  |%varavg| %total
---------------------------------------------------------------
Pair    | 0.037923   | 0.037923   | 0.037923   |   0.0 | 94.11
Neigh   | 0          | 0          | 0          |   0.0 |  0.00
Comm    | 0.000189   | 0.000189   | 0.000189   |   0.0 |  0.47
Output  | 0.001601   | 0.001601   | 0.001601   |   0.0 |  3.97
Modify  | 0.0005     | 0.0005     | 0.0005     |   0.0 |  1.24
Other   |            | 8.3e-05    |            |       |  0.21

Nlocal:    1000 ave 1000 max 1000 min
Histogram: 1 0 0 0 0 0 0 0 0 0
Nghost:    1902 ave 1902 max 1902 min
Histogram: 1 0 0 0 0 0 0 0 0 0
Neighs:    38116 ave 38116 max 38116 min
Histogram: 1 0 0 0 0 0 0 0 0 0

Total # of neighbors = 38116
Ave neighs/atom = 38.116
Neighbor list builds = 0
Dangerous builds = 0
minimize 1e-4 1e-4 10000 10000
WARNING: Using 'neigh_modify every 1 delay 0 check yes' setting during minimization (../min.cpp:168)
Per MPI rank memory allocation (min/avg/max) = 5.819 | 5.819 | 5.819 Mbytes
Step Atoms Temp Press TotEng 
     785     1000  0.077459681   -12652.886   -3593.6003 
     786     1000  0.077459681   -12652.586   -3593.6005 
Loop time of 0.013886 on 1 procs for 1 steps with 1000 atoms

90.2% CPU use with 1 MPI tasks x no OpenMP threads

Minimization stats:
  Stopping criterion = energy tolerance
  Energy initial, next-to-last, final = 
        -3593.61028615     -3593.61028615     -3593.61052436
  Force two-norm initial, final = 0.089519 0.0536556
  Force max component initial, final = 0.0337514 0.0139969
  Final line search alpha, max atom move = 1 0.0139969
  Iterations, force evaluations = 1 2

MPI task timing breakdown:
Section |  min time  |  avg time  |  max time  |%varavg| %total
---------------------------------------------------------------
Pair    | 0.006652   | 0.006652   | 0.006652   |   0.0 | 47.90
Neigh   | 0.006157   | 0.006157   | 0.006157   |   0.0 | 44.34
Comm    | 0.00017    | 0.00017    | 0.00017    |   0.0 |  1.22
Output  | 0          | 0          | 0          |   0.0 |  0.00
Modify  | 0          | 0          | 0          |   0.0 |  0.00
Other   |            | 0.000907   |            |       |  6.53

Nlocal:    1000 ave 1000 max 1000 min
Histogram: 1 0 0 0 0 0 0 0 0 0
Nghost:    1902 ave 1902 max 1902 min
Histogram: 1 0 0 0 0 0 0 0 0 0
Neighs:    38114 ave 38114 max 38114 min
Histogram: 1 0 0 0 0 0 0 0 0 0

Total # of neighbors = 38114
Ave neighs/atom = 38.114
Neighbor list builds = 2
Dangerous builds = 2
displace_atoms liquidAtoms move -0.363 0 0
run 20
Per MPI rank memory allocation (min/avg/max) = 4.694 | 4.694 | 4.694 Mbytes
Step Atoms Temp Press TotEng 
     786     1000  0.077459681   -12652.586   -3593.6005 
     790     1000  0.079004755   -12652.138   -3593.6003 
     800     1000  0.082293062   -12650.936   -3593.5996 
     806     1000  0.083987977   -12650.159   -3593.5991 
Loop time of 0.052993 on 1 procs for 20 steps with 1000 atoms

Performance: 32.608 ns/day, 0.736 hours/ns, 377.408 timesteps/s
87.5% CPU use with 1 MPI tasks x no OpenMP threads

MPI task timing breakdown:
Section |  min time  |  avg time  |  max time  |%varavg| %total
---------------------------------------------------------------
Pair    | 0.049809   | 0.049809   | 0.049809   |   0.0 | 93.99
Neigh   | 0          | 0          | 0          |   0.0 |  0.00
Comm    | 0.000264   | 0.000264   | 0.000264   |   0.0 |  0.50
Output  | 0.002286   | 0.002286   | 0.002286   |   0.0 |  4.31
Modify  | 0.000532   | 0.000532   | 0.000532   |   0.0 |  1.00
Other   |            | 0.000102   |            |       |  0.19

Nlocal:    1000 ave 1000 max 1000 min
Histogram: 1 0 0 0 0 0 0 0 0 0
Nghost:    1902 ave 1902 max 1902 min
Histogram: 1 0 0 0 0 0 0 0 0 0
Neighs:    38114 ave 38114 max 38114 min
Histogram: 1 0 0 0 0 0 0 0 0 0

Total # of neighbors = 38114
Ave neighs/atom = 38.114
Neighbor list builds = 0
Dangerous builds = 0
minimize 1e-4 1e-4 10000 10000
WARNING: Using 'neigh_modify every 1 delay 0 check yes' setting during minimization (../min.cpp:168)
Per MPI rank memory allocation (min/avg/max) = 5.819 | 5.819 | 5.819 Mbytes
Step Atoms Temp Press TotEng 
     806     1000  0.083987977   -12650.159   -3593.5991 
     807     1000  0.083987977   -12649.954   -3593.5994 
Loop time of 0.014921 on 1 procs for 1 steps with 1000 atoms

84.9% CPU use with 1 MPI tasks x no OpenMP threads

Minimization stats:
  Stopping criterion = energy tolerance
  Energy initial, next-to-last, final = 
         -3593.6099767      -3593.6099767     -3593.61021527
  Force two-norm initial, final = 0.0856499 0.0593736
  Force max component initial, final = 0.0304758 0.0164259
  Final line search alpha, max atom move = 1 0.0164259
  Iterations, force evaluations = 1 2

MPI task timing breakdown:
Section |  min time  |  avg time  |  max time  |%varavg| %total
---------------------------------------------------------------
Pair    | 0.006589   | 0.006589   | 0.006589   |   0.0 | 44.16
Neigh   | 0.006931   | 0.006931   | 0.006931   |   0.0 | 46.45
Comm    | 0.000179   | 0.000179   | 0.000179   |   0.0 |  1.20
Output  | 0          | 0          | 0          |   0.0 |  0.00
Modify  | 0          | 0          | 0          |   0.0 |  0.00
Other   |            | 0.001222   |            |       |  8.19

Nlocal:    1000 ave 1000 max 1000 min
Histogram: 1 0 0 0 0 0 0 0 0 0
Nghost:    1902 ave 1902 max 1902 min
Histogram: 1 0 0 0 0 0 0 0 0 0
Neighs:    38116 ave 38116 max 38116 min
Histogram: 1 0 0 0 0 0 0 0 0 0

Total # of neighbors = 38116
Ave neighs/atom = 38.116
Neighbor list builds = 2
Dangerous builds = 2
displace_atoms liquidAtoms move -0.363 0 0
run 20
Per MPI rank memory allocation (min/avg/max) = 4.694 | 4.694 | 4.694 Mbytes
Step Atoms Temp Press TotEng 
     807     1000  0.083987977   -12649.954   -3593.5994 
     810     1000  0.085227862   -12649.562   -3593.5992 
     820     1000  0.089092589   -12648.189   -3593.5984 
     827     1000  0.091544654   -12647.172   -3593.5978 
Loop time of 0.051301 on 1 procs for 20 steps with 1000 atoms

Performance: 33.684 ns/day, 0.713 hours/ns, 389.856 timesteps/s
87.9% CPU use with 1 MPI tasks x no OpenMP threads

MPI task timing breakdown:
Section |  min time  |  avg time  |  max time  |%varavg| %total
---------------------------------------------------------------
Pair    | 0.047956   | 0.047956   | 0.047956   |   0.0 | 93.48
Neigh   | 0          | 0          | 0          |   0.0 |  0.00
Comm    | 0.000256   | 0.000256   | 0.000256   |   0.0 |  0.50
Output  | 0.002287   | 0.002287   | 0.002287   |   0.0 |  4.46
Modify  | 0.000702   | 0.000702   | 0.000702   |   0.0 |  1.37
Other   |            | 0.0001     |            |       |  0.19

Nlocal:    1000 ave 1000 max 1000 min
Histogram: 1 0 0 0 0 0 0 0 0 0
Nghost:    1902 ave 1902 max 1902 min
Histogram: 1 0 0 0 0 0 0 0 0 0
Neighs:    38116 ave 38116 max 38116 min
Histogram: 1 0 0 0 0 0 0 0 0 0

Total # of neighbors = 38116
Ave neighs/atom = 38.116
Neighbor list builds = 0
Dangerous builds = 0
minimize 1e-4 1e-4 10000 10000
WARNING: Using 'neigh_modify every 1 delay 0 check yes' setting during minimization (../min.cpp:168)
Per MPI rank memory allocation (min/avg/max) = 5.819 | 5.819 | 5.819 Mbytes
Step Atoms Temp Press TotEng 
     827     1000  0.091544654   -12647.172   -3593.5978 
     828     1000  0.091544654   -12646.931   -3593.5981 
Loop time of 0.011192 on 1 procs for 1 steps with 1000 atoms

95.6% CPU use with 1 MPI tasks x no OpenMP threads

Minimization stats:
  Stopping criterion = energy tolerance
  Energy initial, next-to-last, final = 
        -3593.60966687     -3593.60966687     -3593.60989811
  Force two-norm initial, final = 0.0710744 0.0728031
  Force max component initial, final = 0.0215159 0.0249969
  Final line search alpha, max atom move = 1 0.0249969
  Iterations, force evaluations = 1 2

MPI task timing breakdown:
Section |  min time  |  avg time  |  max time  |%varavg| %total
---------------------------------------------------------------
Pair    | 0.006066   | 0.006066   | 0.006066   |   0.0 | 54.20
Neigh   | 0.004064   | 0.004064   | 0.004064   |   0.0 | 36.31
Comm    | 0.000105   | 0.000105   | 0.000105   |   0.0 |  0.94
Output  | 0          | 0          | 0          |   0.0 |  0.00
Modify  | 0          | 0          | 0          |   0.0 |  0.00
Other   |            | 0.000957   |            |       |  8.55

Nlocal:    1000 ave 1000 max 1000 min
Histogram: 1 0 0 0 0 0 0 0 0 0
Nghost:    1902 ave 1902 max 1902 min
Histogram: 1 0 0 0 0 0 0 0 0 0
Neighs:    38114 ave 38114 max 38114 min
Histogram: 1 0 0 0 0 0 0 0 0 0

Total # of neighbors = 38114
Ave neighs/atom = 38.114
Neighbor list builds = 2
Dangerous builds = 2
displace_atoms liquidAtoms move -0.363 0 0
run 20
Per MPI rank memory allocation (min/avg/max) = 4.694 | 4.694 | 4.694 Mbytes
Step Atoms Temp Press TotEng 
     828     1000  0.091544654   -12646.931   -3593.5981 
     830     1000  0.092494889   -12646.638   -3593.5979 
     840     1000  0.097093488   -12645.112   -3593.5971 
     848     1000   0.10038022   -12643.802   -3593.5964 
Loop time of 0.033722 on 1 procs for 20 steps with 1000 atoms

Performance: 51.243 ns/day, 0.468 hours/ns, 593.085 timesteps/s
98.3% CPU use with 1 MPI tasks x no OpenMP threads

MPI task timing breakdown:
Section |  min time  |  avg time  |  max time  |%varavg| %total
---------------------------------------------------------------
Pair    | 0.031685   | 0.031685   | 0.031685   |   0.0 | 93.96
Neigh   | 0          | 0          | 0          |   0.0 |  0.00
Comm    | 0.000168   | 0.000168   | 0.000168   |   0.0 |  0.50
Output  | 0.001437   | 0.001437   | 0.001437   |   0.0 |  4.26
Modify  | 0.000365   | 0.000365   | 0.000365   |   0.0 |  1.08
Other   |            | 6.7e-05    |            |       |  0.20

Nlocal:    1000 ave 1000 max 1000 min
Histogram: 1 0 0 0 0 0 0 0 0 0
Nghost:    1902 ave 1902 max 1902 min
Histogram: 1 0 0 0 0 0 0 0 0 0
Neighs:    38114 ave 38114 max 38114 min
Histogram: 1 0 0 0 0 0 0 0 0 0

Total # of neighbors = 38114
Ave neighs/atom = 38.114
Neighbor list builds = 0
Dangerous builds = 0
minimize 1e-4 1e-4 10000 10000
WARNING: Using 'neigh_modify every 1 delay 0 check yes' setting during minimization (../min.cpp:168)
Per MPI rank memory allocation (min/avg/max) = 5.819 | 5.819 | 5.819 Mbytes
Step Atoms Temp Press TotEng 
     848     1000   0.10038022   -12643.802   -3593.5964 
     849     1000   0.10038022   -12643.547   -3593.5967 
Loop time of 0.006613 on 1 procs for 1 steps with 1000 atoms

97.4% CPU use with 1 MPI tasks x no OpenMP threads

Minimization stats:
  Stopping criterion = energy tolerance
  Energy initial, next-to-last, final = 
        -3593.60935762     -3593.60935762      -3593.6096139
  Force two-norm initial, final = 0.0661058 0.0838801
  Force max component initial, final = 0.0174591 0.0308454
  Final line search alpha, max atom move = 1 0.0308454
  Iterations, force evaluations = 1 2

MPI task timing breakdown:
Section |  min time  |  avg time  |  max time  |%varavg| %total
---------------------------------------------------------------
Pair    | 0.005829   | 0.005829   | 0.005829   |   0.0 | 88.14
Neigh   | 0          | 0          | 0          |   0.0 |  0.00
Comm    | 2.3e-05    | 2.3e-05    | 2.3e-05    |   0.0 |  0.35
Output  | 0          | 0          | 0          |   0.0 |  0.00
Modify  | 0          | 0          | 0          |   0.0 |  0.00
Other   |            | 0.000761   |            |       | 11.51

Nlocal:    1000 ave 1000 max 1000 min
Histogram: 1 0 0 0 0 0 0 0 0 0
Nghost:    1902 ave 1902 max 1902 min
Histogram: 1 0 0 0 0 0 0 0 0 0
Neighs:    38115 ave 38115 max 38115 min
Histogram: 1 0 0 0 0 0 0 0 0 0

Total # of neighbors = 38115
Ave neighs/atom = 38.115
Neighbor list builds = 0
Dangerous builds = 0
displace_atoms liquidAtoms move -0.363 0 0
run 20
Per MPI rank memory allocation (min/avg/max) = 4.694 | 4.694 | 4.694 Mbytes
Step Atoms Temp Press TotEng 
     849     1000   0.10038022   -12643.547   -3593.5967 
     850     1000   0.10094573   -12643.381   -3593.5966 
     860     1000    0.1063841   -12641.659   -3593.5957 
     869     1000   0.11050465   -12640.008   -3593.5948 
Loop time of 0.033621 on 1 procs for 20 steps with 1000 atoms

Performance: 51.396 ns/day, 0.467 hours/ns, 594.866 timesteps/s
98.6% CPU use with 1 MPI tasks x no OpenMP threads

MPI task timing breakdown:
Section |  min time  |  avg time  |  max time  |%varavg| %total
---------------------------------------------------------------
Pair    | 0.031413   | 0.031413   | 0.031413   |   0.0 | 93.43
Neigh   | 0          | 0          | 0          |   0.0 |  0.00
Comm    | 0.00019    | 0.00019    | 0.00019    |   0.0 |  0.57
Output  | 0.001525   | 0.001525   | 0.001525   |   0.0 |  4.54
Modify  | 0.000433   | 0.000433   | 0.000433   |   0.0 |  1.29
Other   |            | 6e-05      |            |       |  0.18

Nlocal:    1000 ave 1000 max 1000 min
Histogram: 1 0 0 0 0 0 0 0 0 0
Nghost:    1902 ave 1902 max 1902 min
Histogram: 1 0 0 0 0 0 0 0 0 0
Neighs:    38116 ave 38116 max 38116 min
Histogram: 1 0 0 0 0 0 0 0 0 0

Total # of neighbors = 38116
Ave neighs/atom = 38.116
Neighbor list builds = 0
Dangerous builds = 0
minimize 1e-4 1e-4 10000 10000
WARNING: Using 'neigh_modify every 1 delay 0 check yes' setting during minimization (../min.cpp:168)
Per MPI rank memory allocation (min/avg/max) = 5.819 | 5.819 | 5.819 Mbytes
Step Atoms Temp Press TotEng 
     869     1000   0.11050465   -12640.008   -3593.5948 
     870     1000   0.11050465   -12639.823    -3593.595 
Loop time of 0.010594 on 1 procs for 1 steps with 1000 atoms

98.6% CPU use with 1 MPI tasks x no OpenMP threads

Minimization stats:
  Stopping criterion = energy tolerance
  Energy initial, next-to-last, final = 
        -3593.60905621     -3593.60905621     -3593.60929856
  Force two-norm initial, final = 0.0736061 0.0753635
  Force max component initial, final = 0.0229944 0.0253963
  Final line search alpha, max atom move = 1 0.0253963
  Iterations, force evaluations = 1 2

MPI task timing breakdown:
Section |  min time  |  avg time  |  max time  |%varavg| %total
---------------------------------------------------------------
Pair    | 0.005723   | 0.005723   | 0.005723   |   0.0 | 54.02
Neigh   | 0.003981   | 0.003981   | 0.003981   |   0.0 | 37.58
Comm    | 0.000105   | 0.000105   | 0.000105   |   0.0 |  0.99
Output  | 0          | 0          | 0          |   0.0 |  0.00
Modify  | 0          | 0          | 0          |   0.0 |  0.00
Other   |            | 0.000785   |            |       |  7.41

Nlocal:    1000 ave 1000 max 1000 min
Histogram: 1 0 0 0 0 0 0 0 0 0
Nghost:    1902 ave 1902 max 1902 min
Histogram: 1 0 0 0 0 0 0 0 0 0
Neighs:    38115 ave 38115 max 38115 min
Histogram: 1 0 0 0 0 0 0 0 0 0

Total # of neighbors = 38115
Ave neighs/atom = 38.115
Neighbor list builds = 2
Dangerous builds = 2
displace_atoms liquidAtoms move -0.363 0 0
run 20
Per MPI rank memory allocation (min/avg/max) = 4.694 | 4.694 | 4.694 Mbytes
Step Atoms Temp Press TotEng 
     870     1000   0.11050465   -12640.589    -3593.595 
     880     1000   0.11638344   -12638.711    -3593.594 
     890     1000   0.12120546    -12636.81   -3593.5929 
Loop time of 0.033269 on 1 procs for 20 steps with 1000 atoms

Performance: 51.940 ns/day, 0.462 hours/ns, 601.160 timesteps/s
98.6% CPU use with 1 MPI tasks x no OpenMP threads

MPI task timing breakdown:
Section |  min time  |  avg time  |  max time  |%varavg| %total
---------------------------------------------------------------
Pair    | 0.03129    | 0.03129    | 0.03129    |   0.0 | 94.05
Neigh   | 0          | 0          | 0          |   0.0 |  0.00
Comm    | 0.000154   | 0.000154   | 0.000154   |   0.0 |  0.46
Output  | 0.001432   | 0.001432   | 0.001432   |   0.0 |  4.30
Modify  | 0.000333   | 0.000333   | 0.000333   |   0.0 |  1.00
Other   |            | 6e-05      |            |       |  0.18

Nlocal:    1000 ave 1000 max 1000 min
Histogram: 1 0 0 0 0 0 0 0 0 0
Nghost:    1902 ave 1902 max 1902 min
Histogram: 1 0 0 0 0 0 0 0 0 0
Neighs:    38119 ave 38119 max 38119 min
Histogram: 1 0 0 0 0 0 0 0 0 0

Total # of neighbors = 38119
Ave neighs/atom = 38.119
Neighbor list builds = 0
Dangerous builds = 0
minimize 1e-4 1e-4 10000 10000
WARNING: Using 'neigh_modify every 1 delay 0 check yes' setting during minimization (../min.cpp:168)
Per MPI rank memory allocation (min/avg/max) = 5.819 | 5.819 | 5.819 Mbytes
Step Atoms Temp Press TotEng 
     890     1000   0.12120546    -12636.81   -3593.5929 
     891     1000   0.12120546   -12637.012   -3593.5932 
Loop time of 0.010481 on 1 procs for 1 steps with 1000 atoms

98.4% CPU use with 1 MPI tasks x no OpenMP threads

Minimization stats:
  Stopping criterion = energy tolerance
  Energy initial, next-to-last, final = 
        -3593.60855335     -3593.60855335     -3593.60883736
  Force two-norm initial, final = 0.0926556 0.0679145
  Force max component initial, final = 0.0335604 0.0187183
  Final line search alpha, max atom move = 1 0.0187183
  Iterations, force evaluations = 1 2

MPI task timing breakdown:
Section |  min time  |  avg time  |  max time  |%varavg| %total
---------------------------------------------------------------
Pair    | 0.005491   | 0.005491   | 0.005491   |   0.0 | 52.39
Neigh   | 0.004086   | 0.004086   | 0.004086   |   0.0 | 38.98
Comm    | 0.000115   | 0.000115   | 0.000115   |   0.0 |  1.10
Output  | 0          | 0          | 0          |   0.0 |  0.00
Modify  | 0          | 0          | 0          |   0.0 |  0.00
Other   |            | 0.000789   |            |       |  7.53

Nlocal:    1000 ave 1000 max 1000 min
Histogram: 1 0 0 0 0 0 0 0 0 0
Nghost:    1902 ave 1902 max 1902 min
Histogram: 1 0 0 0 0 0 0 0 0 0
Neighs:    38118 ave 38118 max 38118 min
Histogram: 1 0 0 0 0 0 0 0 0 0

Total # of neighbors = 38118
Ave neighs/atom = 38.118
Neighbor list builds = 2
Dangerous builds = 2
displace_atoms liquidAtoms move -0.363 0 0
run 20
Per MPI rank memory allocation (min/avg/max) = 4.694 | 4.694 | 4.694 Mbytes
Step Atoms Temp Press TotEng 
     891     1000   0.12120546   -12646.687   -3593.6082 
     900     1000   0.12720999   -12645.412   -3593.6072 
     910     1000   0.13391632   -12644.965    -3593.606 
     911     1000   0.13460493   -12644.973   -3593.6059 
Loop time of 0.03349 on 1 procs for 20 steps with 1000 atoms

Performance: 51.597 ns/day, 0.465 hours/ns, 597.193 timesteps/s
98.4% CPU use with 1 MPI tasks x no OpenMP threads

MPI task timing breakdown:
Section |  min time  |  avg time  |  max time  |%varavg| %total
---------------------------------------------------------------
Pair    | 0.031489   | 0.031489   | 0.031489   |   0.0 | 94.03
Neigh   | 0          | 0          | 0          |   0.0 |  0.00
Comm    | 0.000156   | 0.000156   | 0.000156   |   0.0 |  0.47
Output  | 0.001455   | 0.001455   | 0.001455   |   0.0 |  4.34
Modify  | 0.000335   | 0.000335   | 0.000335   |   0.0 |  1.00
Other   |            | 5.5e-05    |            |       |  0.16

Nlocal:    1000 ave 1000 max 1000 min
Histogram: 1 0 0 0 0 0 0 0 0 0
Nghost:    1902 ave 1902 max 1902 min
Histogram: 1 0 0 0 0 0 0 0 0 0
Neighs:    38125 ave 38125 max 38125 min
Histogram: 1 0 0 0 0 0 0 0 0 0

Total # of neighbors = 38125
Ave neighs/atom = 38.125
Neighbor list builds = 0
Dangerous builds = 0
minimize 1e-4 1e-4 10000 10000
WARNING: Using 'neigh_modify every 1 delay 0 check yes' setting during minimization (../min.cpp:168)
Per MPI rank memory allocation (min/avg/max) = 5.819 | 5.819 | 5.819 Mbytes
Step Atoms Temp Press TotEng 
     911     1000   0.13460493   -12644.973   -3593.6059 
     912     1000   0.13460493   -12650.354   -3593.6066 
Loop time of 0.010397 on 1 procs for 1 steps with 1000 atoms

98.5% CPU use with 1 MPI tasks x no OpenMP threads

Minimization stats:
  Stopping criterion = energy tolerance
  Energy initial, next-to-last, final = 
        -3593.62330697     -3593.62330697      -3593.6239536
  Force two-norm initial, final = 0.118609 0.116752
  Force max component initial, final = 0.0609477 0.0405698
  Final line search alpha, max atom move = 1 0.0405698
  Iterations, force evaluations = 1 2

MPI task timing breakdown:
Section |  min time  |  avg time  |  max time  |%varavg| %total
---------------------------------------------------------------
Pair    | 0.00545    | 0.00545    | 0.00545    |   0.0 | 52.42
Neigh   | 0.004004   | 0.004004   | 0.004004   |   0.0 | 38.51
Comm    | 0.000102   | 0.000102   | 0.000102   |   0.0 |  0.98
Output  | 0          | 0          | 0          |   0.0 |  0.00
Modify  | 0          | 0          | 0          |   0.0 |  0.00
Other   |            | 0.000841   |            |       |  8.09

Nlocal:    1000 ave 1000 max 1000 min
Histogram: 1 0 0 0 0 0 0 0 0 0
Nghost:    1902 ave 1902 max 1902 min
Histogram: 1 0 0 0 0 0 0 0 0 0
Neighs:    38132 ave 38132 max 38132 min
Histogram: 1 0 0 0 0 0 0 0 0 0

Total # of neighbors = 38132
Ave neighs/atom = 38.132
Neighbor list builds = 2
Dangerous builds = 2
displace_atoms liquidAtoms move -0.363 0 0
run 20
Per MPI rank memory allocation (min/avg/max) = 4.694 | 4.694 | 4.694 Mbytes
Step Atoms Temp Press TotEng 
     912     1000   0.13460493   -12678.937   -3593.6733 
     920     1000    0.1434356   -12680.139   -3593.6723 
     930     1000   0.15576559   -12684.721    -3593.671 
     932     1000    0.1582871   -12686.027   -3593.6707 
Loop time of 0.042369 on 1 procs for 20 steps with 1000 atoms

Performance: 40.785 ns/day, 0.588 hours/ns, 472.043 timesteps/s
95.7% CPU use with 1 MPI tasks x no OpenMP threads

MPI task timing breakdown:
Section |  min time  |  avg time  |  max time  |%varavg| %total
---------------------------------------------------------------
Pair    | 0.039546   | 0.039546   | 0.039546   |   0.0 | 93.34
Neigh   | 0          | 0          | 0          |   0.0 |  0.00
Comm    | 0.000255   | 0.000255   | 0.000255   |   0.0 |  0.60
Output  | 0.00198    | 0.00198    | 0.00198    |   0.0 |  4.67
Modify  | 0.000476   | 0.000476   | 0.000476   |   0.0 |  1.12
Other   |            | 0.000112   |            |       |  0.26

Nlocal:    1000 ave 1000 max 1000 min
Histogram: 1 0 0 0 0 0 0 0 0 0
Nghost:    1902 ave 1902 max 1902 min
Histogram: 1 0 0 0 0 0 0 0 0 0
Neighs:    38147 ave 38147 max 38147 min
Histogram: 1 0 0 0 0 0 0 0 0 0

Total # of neighbors = 38147
Ave neighs/atom = 38.147
Neighbor list builds = 0
Dangerous builds = 0
minimize 1e-4 1e-4 10000 10000
WARNING: Using 'neigh_modify every 1 delay 0 check yes' setting during minimization (../min.cpp:168)
Per MPI rank memory allocation (min/avg/max) = 5.819 | 5.819 | 5.819 Mbytes
Step Atoms Temp Press TotEng 
     932     1000    0.1582871   -12686.027   -3593.6707 
     933     1000    0.1582871   -12729.205   -3593.6731 
Loop time of 0.014773 on 1 procs for 1 steps with 1000 atoms

89.3% CPU use with 1 MPI tasks x no OpenMP threads

Minimization stats:
  Stopping criterion = energy tolerance
  Energy initial, next-to-last, final = 
        -3593.69113313     -3593.69113313     -3593.69358311
  Force two-norm initial, final = 0.144415 0.228036
  Force max component initial, final = 0.0520292 0.0945744
  Final line search alpha, max atom move = 1 0.0945744
  Iterations, force evaluations = 1 2

MPI task timing breakdown:
Section |  min time  |  avg time  |  max time  |%varavg| %total
---------------------------------------------------------------
Pair    | 0.008011   | 0.008011   | 0.008011   |   0.0 | 54.23
Neigh   | 0.005589   | 0.005589   | 0.005589   |   0.0 | 37.83
Comm    | 0.000172   | 0.000172   | 0.000172   |   0.0 |  1.16
Output  | 0          | 0          | 0          |   0.0 |  0.00
Modify  | 0          | 0          | 0          |   0.0 |  0.00
Other   |            | 0.001001   |            |       |  6.78

Nlocal:    1000 ave 1000 max 1000 min
Histogram: 1 0 0 0 0 0 0 0 0 0
Nghost:    1902 ave 1902 max 1902 min
Histogram: 1 0 0 0 0 0 0 0 0 0
Neighs:    38147 ave 38147 max 38147 min
Histogram: 1 0 0 0 0 0 0 0 0 0

Total # of neighbors = 38147
Ave neighs/atom = 38.147
Neighbor list builds = 2
Dangerous builds = 2
displace_atoms liquidAtoms move -0.363 0 0
run 20
Per MPI rank memory allocation (min/avg/max) = 4.694 | 4.694 | 4.694 Mbytes
Step Atoms Temp Press TotEng 
     933     1000    0.1582871   -12789.348   -3593.8747 
     940     1000   0.17545009   -12796.573   -3593.8736 
     950     1000   0.20334148   -12813.494   -3593.8719 
     953     1000   0.21154496   -12819.977   -3593.8713 
Loop time of 0.047327 on 1 procs for 20 steps with 1000 atoms

Performance: 36.512 ns/day, 0.657 hours/ns, 422.592 timesteps/s
92.8% CPU use with 1 MPI tasks x no OpenMP threads

MPI task timing breakdown:
Section |  min time  |  avg time  |  max time  |%varavg| %total
---------------------------------------------------------------
Pair    | 0.044822   | 0.044822   | 0.044822   |   0.0 | 94.71
Neigh   | 0          | 0          | 0          |   0.0 |  0.00
Comm    | 0.000271   | 0.000271   | 0.000271   |   0.0 |  0.57
Output  | 0.001558   | 0.001558   | 0.001558   |   0.0 |  3.29
Modify  | 0.000546   | 0.000546   | 0.000546   |   0.0 |  1.15
Other   |            | 0.00013    |            |       |  0.27

Nlocal:    1000 ave 1000 max 1000 min
Histogram: 1 0 0 0 0 0 0 0 0 0
Nghost:    1902 ave 1902 max 1902 min
Histogram: 1 0 0 0 0 0 0 0 0 0
Neighs:    38191 ave 38191 max 38191 min
Histogram: 1 0 0 0 0 0 0 0 0 0

Total # of neighbors = 38191
Ave neighs/atom = 38.191
Neighbor list builds = 0
Dangerous builds = 0
minimize 1e-4 1e-4 10000 10000
WARNING: Using 'neigh_modify every 1 delay 0 check yes' setting during minimization (../min.cpp:168)
Per MPI rank memory allocation (min/avg/max) = 5.819 | 5.819 | 5.819 Mbytes
Step Atoms Temp Press TotEng 
     953     1000   0.21154496   -12819.977   -3593.8713 
     954     1000   0.21154496   -12974.365   -3593.8805 
Loop time of 0.013426 on 1 procs for 1 steps with 1000 atoms

92.5% CPU use with 1 MPI tasks x no OpenMP threads

Minimization stats:
  Stopping criterion = energy tolerance
  Energy initial, next-to-last, final = 
        -3593.89866244     -3593.89866244     -3593.90783233
  Force two-norm initial, final = 0.216448 0.409039
  Force max component initial, final = 0.0577605 0.172229
  Final line search alpha, max atom move = 1 0.172229
  Iterations, force evaluations = 1 2

MPI task timing breakdown:
Section |  min time  |  avg time  |  max time  |%varavg| %total
---------------------------------------------------------------
Pair    | 0.0069     | 0.0069     | 0.0069     |   0.0 | 51.39
Neigh   | 0.005456   | 0.005456   | 0.005456   |   0.0 | 40.64
Comm    | 0.000157   | 0.000157   | 0.000157   |   0.0 |  1.17
Output  | 0          | 0          | 0          |   0.0 |  0.00
Modify  | 0          | 0          | 0          |   0.0 |  0.00
Other   |            | 0.000913   |            |       |  6.80

Nlocal:    1000 ave 1000 max 1000 min
Histogram: 1 0 0 0 0 0 0 0 0 0
Nghost:    1902 ave 1902 max 1902 min
Histogram: 1 0 0 0 0 0 0 0 0 0
Neighs:    38182 ave 38182 max 38182 min
Histogram: 1 0 0 0 0 0 0 0 0 0

Total # of neighbors = 38182
Ave neighs/atom = 38.182
Neighbor list builds = 2
Dangerous builds = 2
displace_atoms liquidAtoms move -0.363 0 0
run 20
Per MPI rank memory allocation (min/avg/max) = 4.694 | 4.694 | 4.694 Mbytes
Step Atoms Temp Press TotEng 
     954     1000   0.21154496   -13123.763   -3594.4268 
     960     1000    0.2520763   -13141.028   -3594.4255 
     970     1000   0.33108695   -13185.063   -3594.4228 
     974     1000   0.36255127   -13207.681   -3594.4216 
Loop time of 0.047444 on 1 procs for 20 steps with 1000 atoms

Performance: 36.422 ns/day, 0.659 hours/ns, 421.550 timesteps/s
88.0% CPU use with 1 MPI tasks x no OpenMP threads

MPI task timing breakdown:
Section |  min time  |  avg time  |  max time  |%varavg| %total
---------------------------------------------------------------
Pair    | 0.04347    | 0.04347    | 0.04347    |   0.0 | 91.62
Neigh   | 0          | 0          | 0          |   0.0 |  0.00
Comm    | 0.000238   | 0.000238   | 0.000238   |   0.0 |  0.50
Output  | 0.003161   | 0.003161   | 0.003161   |   0.0 |  6.66
Modify  | 0.000485   | 0.000485   | 0.000485   |   0.0 |  1.02
Other   |            | 9e-05      |            |       |  0.19

Nlocal:    1000 ave 1000 max 1000 min
Histogram: 1 0 0 0 0 0 0 0 0 0
Nghost:    1902 ave 1902 max 1902 min
Histogram: 1 0 0 0 0 0 0 0 0 0
Neighs:    38246 ave 38246 max 38246 min
Histogram: 1 0 0 0 0 0 0 0 0 0

Total # of neighbors = 38246
Ave neighs/atom = 38.246
Neighbor list builds = 0
Dangerous builds = 0
minimize 1e-4 1e-4 10000 10000
WARNING: Using 'neigh_modify every 1 delay 0 check yes' setting during minimization (../min.cpp:168)
Per MPI rank memory allocation (min/avg/max) = 5.819 | 5.819 | 5.819 Mbytes
Step Atoms Temp Press TotEng 
     974     1000   0.36255127   -13207.681   -3594.4216 
     975     1000   0.36255127    -13463.22   -3594.4438 
Loop time of 0.014385 on 1 procs for 1 steps with 1000 atoms

91.2% CPU use with 1 MPI tasks x no OpenMP threads

Minimization stats:
  Stopping criterion = energy tolerance
  Energy initial, next-to-last, final = 
         -3594.4683791      -3594.4683791     -3594.49060664
  Force two-norm initial, final = 0.407522 0.736568
  Force max component initial, final = 0.0882885 0.257896
  Final line search alpha, max atom move = 1 0.257896
  Iterations, force evaluations = 1 2

MPI task timing breakdown:
Section |  min time  |  avg time  |  max time  |%varavg| %total
---------------------------------------------------------------
Pair    | 0.007873   | 0.007873   | 0.007873   |   0.0 | 54.73
Neigh   | 0.005506   | 0.005506   | 0.005506   |   0.0 | 38.28
Comm    | 0.000144   | 0.000144   | 0.000144   |   0.0 |  1.00
Output  | 0          | 0          | 0          |   0.0 |  0.00
Modify  | 0          | 0          | 0          |   0.0 |  0.00
Other   |            | 0.000862   |            |       |  5.99

Nlocal:    1000 ave 1000 max 1000 min
Histogram: 1 0 0 0 0 0 0 0 0 0
Nghost:    1901 ave 1901 max 1901 min
Histogram: 1 0 0 0 0 0 0 0 0 0
Neighs:    38248 ave 38248 max 38248 min
Histogram: 1 0 0 0 0 0 0 0 0 0

Total # of neighbors = 38248
Ave neighs/atom = 38.248
Neighbor list builds = 2
Dangerous builds = 2
displace_atoms liquidAtoms move -0.363 0 0
run 20
Per MPI rank memory allocation (min/avg/max) = 4.694 | 4.694 | 4.694 Mbytes
Step Atoms Temp Press TotEng 
     975     1000   0.36255127   -13684.721   -3595.6289 
     980     1000   0.46093707   -13717.845   -3595.6271 
     990     1000   0.68973485   -13811.243   -3595.6218 
     995     1000   0.80451417   -13868.002   -3595.6183 
Loop time of 0.051834 on 1 procs for 20 steps with 1000 atoms

Performance: 33.337 ns/day, 0.720 hours/ns, 385.847 timesteps/s
88.8% CPU use with 1 MPI tasks x no OpenMP threads

MPI task timing breakdown:
Section |  min time  |  avg time  |  max time  |%varavg| %total
---------------------------------------------------------------
Pair    | 0.045881   | 0.045881   | 0.045881   |   0.0 | 88.52
Neigh   | 0.002561   | 0.002561   | 0.002561   |   0.0 |  4.94
Comm    | 0.000298   | 0.000298   | 0.000298   |   0.0 |  0.57
Output  | 0.002496   | 0.002496   | 0.002496   |   0.0 |  4.82
Modify  | 0.000495   | 0.000495   | 0.000495   |   0.0 |  0.95
Other   |            | 0.000103   |            |       |  0.20

Nlocal:    1000 ave 1000 max 1000 min
Histogram: 1 0 0 0 0 0 0 0 0 0
Nghost:    1901 ave 1901 max 1901 min
Histogram: 1 0 0 0 0 0 0 0 0 0
Neighs:    38336 ave 38336 max 38336 min
Histogram: 1 0 0 0 0 0 0 0 0 0

Total # of neighbors = 38336
Ave neighs/atom = 38.336
Neighbor list builds = 1
Dangerous builds = 0
minimize 1e-4 1e-4 10000 10000
WARNING: Using 'neigh_modify every 1 delay 0 check yes' setting during minimization (../min.cpp:168)
Per MPI rank memory allocation (min/avg/max) = 5.819 | 5.819 | 5.819 Mbytes
Step Atoms Temp Press TotEng 
     995     1000   0.80451417   -13868.002   -3595.6183 
     996     1000   0.80451417   -14230.461   -3595.6704 
Loop time of 0.01329 on 1 procs for 1 steps with 1000 atoms

93.5% CPU use with 1 MPI tasks x no OpenMP threads

Minimization stats:
  Stopping criterion = energy tolerance
  Energy initial, next-to-last, final = 
        -3595.72219991     -3595.72219991     -3595.77431172
  Force two-norm initial, final = 0.692335 1.15506
  Force max component initial, final = 0.124799 0.461121
  Final line search alpha, max atom move = 0.801286 0.36949
  Iterations, force evaluations = 1 2

MPI task timing breakdown:
Section |  min time  |  avg time  |  max time  |%varavg| %total
---------------------------------------------------------------
Pair    | 0.006783   | 0.006783   | 0.006783   |   0.0 | 51.04
Neigh   | 0.005488   | 0.005488   | 0.005488   |   0.0 | 41.29
Comm    | 0.000116   | 0.000116   | 0.000116   |   0.0 |  0.87
Output  | 0          | 0          | 0          |   0.0 |  0.00
Modify  | 0          | 0          | 0          |   0.0 |  0.00
Other   |            | 0.000903   |            |       |  6.79

Nlocal:    1000 ave 1000 max 1000 min
Histogram: 1 0 0 0 0 0 0 0 0 0
Nghost:    1901 ave 1901 max 1901 min
Histogram: 1 0 0 0 0 0 0 0 0 0
Neighs:    38325 ave 38325 max 38325 min
Histogram: 1 0 0 0 0 0 0 0 0 0

Total # of neighbors = 38325
Ave neighs/atom = 38.325
Neighbor list builds = 2
Dangerous builds = 2
displace_atoms liquidAtoms move -0.363 0 0
run 20
Per MPI rank memory allocation (min/avg/max) = 4.694 | 4.694 | 4.694 Mbytes
Step Atoms Temp Press TotEng 
     996     1000   0.80451417   -14555.453   -3597.8247 
    1000     1000    1.0187895   -14608.911   -3597.8213 
    1010     1000    1.6357665    -14782.76   -3597.8091 
    1016     1000    2.0176339   -14911.569   -3597.7989 
Loop time of 0.046614 on 1 procs for 20 steps with 1000 atoms

Performance: 37.070 ns/day, 0.647 hours/ns, 429.056 timesteps/s
95.0% CPU use with 1 MPI tasks x no OpenMP threads

MPI task timing breakdown:
Section |  min time  |  avg time  |  max time  |%varavg| %total
---------------------------------------------------------------
Pair    | 0.041629   | 0.041629   | 0.041629   |   0.0 | 89.31
Neigh   | 0.002217   | 0.002217   | 0.002217   |   0.0 |  4.76
Comm    | 0.000318   | 0.000318   | 0.000318   |   0.0 |  0.68
Output  | 0.00177    | 0.00177    | 0.00177    |   0.0 |  3.80
Modify  | 0.000569   | 0.000569   | 0.000569   |   0.0 |  1.22
Other   |            | 0.000111   |            |       |  0.24

Nlocal:    1000 ave 1000 max 1000 min
Histogram: 1 0 0 0 0 0 0 0 0 0
Nghost:    1901 ave 1901 max 1901 min
Histogram: 1 0 0 0 0 0 0 0 0 0
Neighs:    38456 ave 38456 max 38456 min
Histogram: 1 0 0 0 0 0 0 0 0 0

Total # of neighbors = 38456
Ave neighs/atom = 38.456
Neighbor list builds = 1
Dangerous builds = 0
minimize 1e-4 1e-4 10000 10000
WARNING: Using 'neigh_modify every 1 delay 0 check yes' setting during minimization (../min.cpp:168)
Per MPI rank memory allocation (min/avg/max) = 5.819 | 5.819 | 5.819 Mbytes
Step Atoms Temp Press TotEng 
    1016     1000    2.0176339   -14911.569   -3597.7989 
    1017     1000    2.0176339   -15387.213   -3597.9117 
Loop time of 0.010547 on 1 procs for 1 steps with 1000 atoms

98.5% CPU use with 1 MPI tasks x no OpenMP threads

Minimization stats:
  Stopping criterion = energy tolerance
  Energy initial, next-to-last, final = 
        -3598.05942464     -3598.05942464     -3598.17221466
  Force two-norm initial, final = 1.13745 1.70533
  Force max component initial, final = 0.318948 0.510539
  Final line search alpha, max atom move = 0.313531 0.16007
  Iterations, force evaluations = 1 2

MPI task timing breakdown:
Section |  min time  |  avg time  |  max time  |%varavg| %total
---------------------------------------------------------------
Pair    | 0.005554   | 0.005554   | 0.005554   |   0.0 | 52.66
Neigh   | 0.004112   | 0.004112   | 0.004112   |   0.0 | 38.99
Comm    | 0.000103   | 0.000103   | 0.000103   |   0.0 |  0.98
Output  | 0          | 0          | 0          |   0.0 |  0.00
Modify  | 0          | 0          | 0          |   0.0 |  0.00
Other   |            | 0.000778   |            |       |  7.38

Nlocal:    1000 ave 1000 max 1000 min
Histogram: 1 0 0 0 0 0 0 0 0 0
Nghost:    1901 ave 1901 max 1901 min
Histogram: 1 0 0 0 0 0 0 0 0 0
Neighs:    38443 ave 38443 max 38443 min
Histogram: 1 0 0 0 0 0 0 0 0 0

Total # of neighbors = 38443
Ave neighs/atom = 38.443
Neighbor list builds = 2
Dangerous builds = 2
displace_atoms liquidAtoms move -0.363 0 0
run 20
Per MPI rank memory allocation (min/avg/max) = 4.694 | 4.694 | 4.694 Mbytes
Step Atoms Temp Press TotEng 
    1017     1000    2.0176339   -15795.456   -3601.5312 
    1020     1000     2.421144    -15867.05   -3601.5251 
    1030     1000    3.9472689   -16159.603   -3601.4955 
    1037     1000    5.0742952   -16401.837    -3601.466 
Loop time of 0.03828 on 1 procs for 20 steps with 1000 atoms

Performance: 45.141 ns/day, 0.532 hours/ns, 522.466 timesteps/s
98.6% CPU use with 1 MPI tasks x no OpenMP threads

MPI task timing breakdown:
Section |  min time  |  avg time  |  max time  |%varavg| %total
---------------------------------------------------------------
Pair    | 0.031914   | 0.031914   | 0.031914   |   0.0 | 83.37
Neigh   | 0.004197   | 0.004197   | 0.004197   |   0.0 | 10.96
Comm    | 0.000236   | 0.000236   | 0.000236   |   0.0 |  0.62
Output  | 0.001525   | 0.001525   | 0.001525   |   0.0 |  3.98
Modify  | 0.000349   | 0.000349   | 0.000349   |   0.0 |  0.91
Other   |            | 5.9e-05    |            |       |  0.15

Nlocal:    1000 ave 1000 max 1000 min
Histogram: 1 0 0 0 0 0 0 0 0 0
Nghost:    1901 ave 1901 max 1901 min
Histogram: 1 0 0 0 0 0 0 0 0 0
Neighs:    38579 ave 38579 max 38579 min
Histogram: 1 0 0 0 0 0 0 0 0 0

Total # of neighbors = 38579
Ave neighs/atom = 38.579
Neighbor list builds = 2
Dangerous builds = 2
minimize 1e-4 1e-4 10000 10000
WARNING: Using 'neigh_modify every 1 delay 0 check yes' setting during minimization (../min.cpp:168)
Per MPI rank memory allocation (min/avg/max) = 5.819 | 5.819 | 5.819 Mbytes
Step Atoms Temp Press TotEng 
    1037     1000    5.0742952   -16401.837    -3601.466 
    1038     1000    5.0742952   -17090.475   -3601.7324 
Loop time of 0.010641 on 1 procs for 1 steps with 1000 atoms

98.4% CPU use with 1 MPI tasks x no OpenMP threads

Minimization stats:
  Stopping criterion = energy tolerance
  Energy initial, next-to-last, final = 
        -3602.12125077     -3602.12125077     -3602.38763628
  Force two-norm initial, final = 1.73136 2.6736
  Force max component initial, final = 0.377466 1.08745
  Final line search alpha, max atom move = 0.264924 0.288091
  Iterations, force evaluations = 1 2

MPI task timing breakdown:
Section |  min time  |  avg time  |  max time  |%varavg| %total
---------------------------------------------------------------
Pair    | 0.00558    | 0.00558    | 0.00558    |   0.0 | 52.44
Neigh   | 0.004154   | 0.004154   | 0.004154   |   0.0 | 39.04
Comm    | 0.000101   | 0.000101   | 0.000101   |   0.0 |  0.95
Output  | 0          | 0          | 0          |   0.0 |  0.00
Modify  | 0          | 0          | 0          |   0.0 |  0.00
Other   |            | 0.000806   |            |       |  7.57

Nlocal:    1000 ave 1000 max 1000 min
Histogram: 1 0 0 0 0 0 0 0 0 0
Nghost:    1901 ave 1901 max 1901 min
Histogram: 1 0 0 0 0 0 0 0 0 0
Neighs:    38558 ave 38558 max 38558 min
Histogram: 1 0 0 0 0 0 0 0 0 0

Total # of neighbors = 38558
Ave neighs/atom = 38.558
Neighbor list builds = 2
Dangerous builds = 2
displace_atoms liquidAtoms move -0.363 0 0
run 20
Per MPI rank memory allocation (min/avg/max) = 4.694 | 4.694 | 4.694 Mbytes
Step Atoms Temp Press TotEng 
    1038     1000    5.0742952   -17478.307   -3607.2851 
    1040     1000     5.713894   -17557.641    -3607.275 
    1050     1000    9.3234441   -18012.797    -3607.205 
    1058     1000    12.375504   -18441.921   -3607.1234 
Loop time of 0.03783 on 1 procs for 20 steps with 1000 atoms

Performance: 45.678 ns/day, 0.525 hours/ns, 528.681 timesteps/s
98.9% CPU use with 1 MPI tasks x no OpenMP threads

MPI task timing breakdown:
Section |  min time  |  avg time  |  max time  |%varavg| %total
---------------------------------------------------------------
Pair    | 0.0317     | 0.0317     | 0.0317     |   0.0 | 83.80
Neigh   | 0.004095   | 0.004095   | 0.004095   |   0.0 | 10.82
Comm    | 0.000233   | 0.000233   | 0.000233   |   0.0 |  0.62
Output  | 0.00142    | 0.00142    | 0.00142    |   0.0 |  3.75
Modify  | 0.000329   | 0.000329   | 0.000329   |   0.0 |  0.87
Other   |            | 5.3e-05    |            |       |  0.14

Nlocal:    1000 ave 1000 max 1000 min
Histogram: 1 0 0 0 0 0 0 0 0 0
Nghost:    1901 ave 1901 max 1901 min
Histogram: 1 0 0 0 0 0 0 0 0 0
Neighs:    38743 ave 38743 max 38743 min
Histogram: 1 0 0 0 0 0 0 0 0 0

Total # of neighbors = 38743
Ave neighs/atom = 38.743
Neighbor list builds = 2
Dangerous builds = 2
minimize 1e-4 1e-4 10000 10000
WARNING: Using 'neigh_modify every 1 delay 0 check yes' setting during minimization (../min.cpp:168)
Per MPI rank memory allocation (min/avg/max) = 5.819 | 5.819 | 5.819 Mbytes
Step Atoms Temp Press TotEng 
    1058     1000    12.375504   -18441.921   -3607.1234 
    1060     1000    12.375504   -20387.147   -3608.6509 
    1070     1000    12.375504    -31204.05   -3621.8517 
    1080     1000    12.375504   -36360.399    -3638.342 
    1090     1000    12.375504   -34578.085    -3653.551 
    1098     1000    12.375504    -28429.16   -3663.5181 
Loop time of 0.183067 on 1 procs for 40 steps with 1000 atoms

99.5% CPU use with 1 MPI tasks x no OpenMP threads

Minimization stats:
  Stopping criterion = energy tolerance
  Energy initial, next-to-last, final = 
        -3608.72147815     -3664.76395043     -3665.11613339
  Force two-norm initial, final = 2.42972 1.88593
  Force max component initial, final = 0.59325 0.390325
  Final line search alpha, max atom move = 0.294008 0.114759
  Iterations, force evaluations = 40 47

MPI task timing breakdown:
Section |  min time  |  avg time  |  max time  |%varavg| %total
---------------------------------------------------------------
Pair    | 0.088983   | 0.088983   | 0.088983   |   0.0 | 48.61
Neigh   | 0.086249   | 0.086249   | 0.086249   |   0.0 | 47.11
Comm    | 0.002075   | 0.002075   | 0.002075   |   0.0 |  1.13
Output  | 0.003183   | 0.003183   | 0.003183   |   0.0 |  1.74
Modify  | 0          | 0          | 0          |   0.0 |  0.00
Other   |            | 0.002577   |            |       |  1.41

Nlocal:    1000 ave 1000 max 1000 min
Histogram: 1 0 0 0 0 0 0 0 0 0
Nghost:    1902 ave 1902 max 1902 min
Histogram: 1 0 0 0 0 0 0 0 0 0
Neighs:    39616 ave 39616 max 39616 min
Histogram: 1 0 0 0 0 0 0 0 0 0

Total # of neighbors = 39616
Ave neighs/atom = 39.616
Neighbor list builds = 42
Dangerous builds = 37
displace_atoms liquidAtoms move -0.363 0 0
run 20
Per MPI rank memory allocation (min/avg/max) = 4.694 | 4.694 | 4.694 Mbytes
Step Atoms Temp Press TotEng 
    1098     1000    12.375504   -21199.787   -3654.3709 
    1100     1000    8.1853011   -21132.933   -3654.3513 
    1110     1000    23.400347   -21322.961   -3654.2501 
    1118     1000    62.565247   -21789.159   -3653.9345 
Loop time of 0.039047 on 1 procs for 20 steps with 1000 atoms

Performance: 44.254 ns/day, 0.542 hours/ns, 512.203 timesteps/s
99.7% CPU use with 1 MPI tasks x no OpenMP threads

MPI task timing breakdown:
Section |  min time  |  avg time  |  max time  |%varavg| %total
---------------------------------------------------------------
Pair    | 0.032772   | 0.032772   | 0.032772   |   0.0 | 83.93
Neigh   | 0.004228   | 0.004228   | 0.004228   |   0.0 | 10.83
Comm    | 0.000234   | 0.000234   | 0.000234   |   0.0 |  0.60
Output  | 0.001425   | 0.001425   | 0.001425   |   0.0 |  3.65
Modify  | 0.000336   | 0.000336   | 0.000336   |   0.0 |  0.86
Other   |            | 5.2e-05    |            |       |  0.13

Nlocal:    1000 ave 1000 max 1000 min
Histogram: 1 0 0 0 0 0 0 0 0 0
Nghost:    1903 ave 1903 max 1903 min
Histogram: 1 0 0 0 0 0 0 0 0 0
Neighs:    40121 ave 40121 max 40121 min
Histogram: 1 0 0 0 0 0 0 0 0 0

Total # of neighbors = 40121
Ave neighs/atom = 40.121
Neighbor list builds = 2
Dangerous builds = 2
minimize 1e-4 1e-4 10000 10000
WARNING: Using 'neigh_modify every 1 delay 0 check yes' setting during minimization (../min.cpp:168)
Per MPI rank memory allocation (min/avg/max) = 5.819 | 5.819 | 5.819 Mbytes
Step Atoms Temp Press TotEng 
    1118     1000    62.565247   -21789.159   -3653.9345 
    1120     1000    62.565247    -22443.21   -3660.6211 
    1130     1000    62.565247   -16781.433    -3665.564 
Loop time of 0.075921 on 1 procs for 12 steps with 1000 atoms

99.1% CPU use with 1 MPI tasks x no OpenMP threads

Minimization stats:
  Stopping criterion = energy tolerance
  Energy initial, next-to-last, final = 
         -3662.0136053     -3673.30306804     -3673.64312339
  Force two-norm initial, final = 13.2722 1.68406
  Force max component initial, final = 2.08112 0.203272
  Final line search alpha, max atom move = 0.290744 0.0591002
  Iterations, force evaluations = 12 19

MPI task timing breakdown:
Section |  min time  |  avg time  |  max time  |%varavg| %total
---------------------------------------------------------------
Pair    | 0.038571   | 0.038571   | 0.038571   |   0.0 | 50.80
Neigh   | 0.034477   | 0.034477   | 0.034477   |   0.0 | 45.41
Comm    | 0.000795   | 0.000795   | 0.000795   |   0.0 |  1.05
Output  | 0.000701   | 0.000701   | 0.000701   |   0.0 |  0.92
Modify  | 0          | 0          | 0          |   0.0 |  0.00
Other   |            | 0.001377   |            |       |  1.81

Nlocal:    1000 ave 1000 max 1000 min
Histogram: 1 0 0 0 0 0 0 0 0 0
Nghost:    1903 ave 1903 max 1903 min
Histogram: 1 0 0 0 0 0 0 0 0 0
Neighs:    40329 ave 40329 max 40329 min
Histogram: 1 0 0 0 0 0 0 0 0 0

Total # of neighbors = 40329
Ave neighs/atom = 40.329
Neighbor list builds = 16
Dangerous builds = 13
displace_atoms liquidAtoms move -0.363 0 0
run 20
Per MPI rank memory allocation (min/avg/max) = 4.694 | 4.694 | 4.694 Mbytes
Step Atoms Temp Press TotEng 
    1130     1000    62.565247   -8586.3523   -3651.9894 
    1140     1000      147.973   -9602.9897   -3650.9876 
    1150     1000    165.46534   -9428.1211    -3649.485 
Loop time of 0.039273 on 1 procs for 20 steps with 1000 atoms

Performance: 44.000 ns/day, 0.545 hours/ns, 509.256 timesteps/s
99.9% CPU use with 1 MPI tasks x no OpenMP threads

MPI task timing breakdown:
Section |  min time  |  avg time  |  max time  |%varavg| %total
---------------------------------------------------------------
Pair    | 0.03303    | 0.03303    | 0.03303    |   0.0 | 84.10
Neigh   | 0.00425    | 0.00425    | 0.00425    |   0.0 | 10.82
Comm    | 0.000227   | 0.000227   | 0.000227   |   0.0 |  0.58
Output  | 0.001392   | 0.001392   | 0.001392   |   0.0 |  3.54
Modify  | 0.00032    | 0.00032    | 0.00032    |   0.0 |  0.81
Other   |            | 5.4e-05    |            |       |  0.14

Nlocal:    1000 ave 1000 max 1000 min
Histogram: 1 0 0 0 0 0 0 0 0 0
Nghost:    1903 ave 1903 max 1903 min
Histogram: 1 0 0 0 0 0 0 0 0 0
Neighs:    40876 ave 40876 max 40876 min
Histogram: 1 0 0 0 0 0 0 0 0 0

Total # of neighbors = 40876
Ave neighs/atom = 40.876
Neighbor list builds = 2
Dangerous builds = 2
minimize 1e-4 1e-4 10000 10000
WARNING: Using 'neigh_modify every 1 delay 0 check yes' setting during minimization (../min.cpp:168)
Per MPI rank memory allocation (min/avg/max) = 5.819 | 5.819 | 5.819 Mbytes
Step Atoms Temp Press TotEng 
    1150     1000    165.46534   -9428.1211    -3649.485 
    1154     1000    165.46534   -10034.659    -3654.181 
Loop time of 0.029296 on 1 procs for 4 steps with 1000 atoms

99.7% CPU use with 1 MPI tasks x no OpenMP threads

Minimization stats:
  Stopping criterion = energy tolerance
  Energy initial, next-to-last, final = 
        -3670.85165532     -3675.21312077     -3675.54772093
  Force two-norm initial, final = 10.5223 2.05818
  Force max component initial, final = 1.5746 0.635004
  Final line search alpha, max atom move = 0.219454 0.139354
  Iterations, force evaluations = 4 8

MPI task timing breakdown:
Section |  min time  |  avg time  |  max time  |%varavg| %total
---------------------------------------------------------------
Pair    | 0.017456   | 0.017456   | 0.017456   |   0.0 | 59.58
Neigh   | 0.010626   | 0.010626   | 0.010626   |   0.0 | 36.27
Comm    | 0.000268   | 0.000268   | 0.000268   |   0.0 |  0.91
Output  | 0          | 0          | 0          |   0.0 |  0.00
Modify  | 0          | 0          | 0          |   0.0 |  0.00
Other   |            | 0.000946   |            |       |  3.23

Nlocal:    1000 ave 1000 max 1000 min
Histogram: 1 0 0 0 0 0 0 0 0 0
Nghost:    1903 ave 1903 max 1903 min
Histogram: 1 0 0 0 0 0 0 0 0 0
Neighs:    40749 ave 40749 max 40749 min
Histogram: 1 0 0 0 0 0 0 0 0 0

Total # of neighbors = 40749
Ave neighs/atom = 40.749
Neighbor list builds = 5
Dangerous builds = 2
displace_atoms liquidAtoms move -0.363 0 0
run 20
Per MPI rank memory allocation (min/avg/max) = 4.694 | 4.694 | 4.694 Mbytes
Step Atoms Temp Press TotEng 
    1154     1000    165.46534   -968.29666   -3635.8664 
    1160     1000    252.61613   -1979.1907   -3634.7198 
    1170     1000    283.62727   -1775.8324   -3632.2188 
    1174     1000    259.87734   -1088.9625   -3631.2495 
Loop time of 0.040424 on 1 procs for 20 steps with 1000 atoms

Performance: 42.747 ns/day, 0.561 hours/ns, 494.756 timesteps/s
99.8% CPU use with 1 MPI tasks x no OpenMP threads

MPI task timing breakdown:
Section |  min time  |  avg time  |  max time  |%varavg| %total
---------------------------------------------------------------
Pair    | 0.034144   | 0.034144   | 0.034144   |   0.0 | 84.46
Neigh   | 0.004281   | 0.004281   | 0.004281   |   0.0 | 10.59
Comm    | 0.00023    | 0.00023    | 0.00023    |   0.0 |  0.57
Output  | 0.0014     | 0.0014     | 0.0014     |   0.0 |  3.46
Modify  | 0.000322   | 0.000322   | 0.000322   |   0.0 |  0.80
Other   |            | 4.7e-05    |            |       |  0.12

Nlocal:    1000 ave 1000 max 1000 min
Histogram: 1 0 0 0 0 0 0 0 0 0
Nghost:    1901 ave 1901 max 1901 min
Histogram: 1 0 0 0 0 0 0 0 0 0
Neighs:    41431 ave 41431 max 41431 min
Histogram: 1 0 0 0 0 0 0 0 0 0

Total # of neighbors = 41431
Ave neighs/atom = 41.431
Neighbor list builds = 2
Dangerous builds = 2
minimize 1e-4 1e-4 10000 10000
WARNING: Using 'neigh_modify every 1 delay 0 check yes' setting during minimization (../min.cpp:168)
Per MPI rank memory allocation (min/avg/max) = 5.819 | 5.819 | 5.819 Mbytes
Step Atoms Temp Press TotEng 
    1174     1000    259.87734   -1088.9625   -3631.2495 
    1180     1000    259.87734   -2163.6772   -3642.3318 
    1181     1000    259.87734   -2117.1883   -3642.6899 
Loop time of 0.044979 on 1 procs for 7 steps with 1000 atoms

99.7% CPU use with 1 MPI tasks x no OpenMP threads

Minimization stats:
  Stopping criterion = energy tolerance
  Energy initial, next-to-last, final = 
        -3664.80772942     -3675.89000211     -3676.24811192
  Force two-norm initial, final = 17.5113 1.74629
  Force max component initial, final = 2.22963 0.227005
  Final line search alpha, max atom move = 0.197956 0.0449371
  Iterations, force evaluations = 7 11

MPI task timing breakdown:
Section |  min time  |  avg time  |  max time  |%varavg| %total
---------------------------------------------------------------
Pair    | 0.023551   | 0.023551   | 0.023551   |   0.0 | 52.36
Neigh   | 0.019195   | 0.019195   | 0.019195   |   0.0 | 42.68
Comm    | 0.000445   | 0.000445   | 0.000445   |   0.0 |  0.99
Output  | 0.000712   | 0.000712   | 0.000712   |   0.0 |  1.58
Modify  | 0          | 0          | 0          |   0.0 |  0.00
Other   |            | 0.001076   |            |       |  2.39

Nlocal:    1000 ave 1000 max 1000 min
Histogram: 1 0 0 0 0 0 0 0 0 0
Nghost:    1899 ave 1899 max 1899 min
Histogram: 1 0 0 0 0 0 0 0 0 0
Neighs:    41128 ave 41128 max 41128 min
Histogram: 1 0 0 0 0 0 0 0 0 0

Total # of neighbors = 41128
Ave neighs/atom = 41.128
Neighbor list builds = 9
Dangerous builds = 7
displace_atoms liquidAtoms move -0.363 0 0
run 20
Per MPI rank memory allocation (min/avg/max) = 4.694 | 4.694 | 4.694 Mbytes
Step Atoms Temp Press TotEng 
    1181     1000    259.87734    7446.2941   -3622.8097 
    1190     1000    389.20544      6040.65   -3620.1858 
    1200     1000    363.28442    7287.2898   -3616.8746 
    1201     1000     353.9323    7587.7355    -3616.564 
Loop time of 0.040754 on 1 procs for 20 steps with 1000 atoms

Performance: 42.401 ns/day, 0.566 hours/ns, 490.749 timesteps/s
99.8% CPU use with 1 MPI tasks x no OpenMP threads

MPI task timing breakdown:
Section |  min time  |  avg time  |  max time  |%varavg| %total
---------------------------------------------------------------
Pair    | 0.034443   | 0.034443   | 0.034443   |   0.0 | 84.51
Neigh   | 0.004318   | 0.004318   | 0.004318   |   0.0 | 10.60
Comm    | 0.000222   | 0.000222   | 0.000222   |   0.0 |  0.54
Output  | 0.001399   | 0.001399   | 0.001399   |   0.0 |  3.43
Modify  | 0.00032    | 0.00032    | 0.00032    |   0.0 |  0.79
Other   |            | 5.2e-05    |            |       |  0.13

Nlocal:    1000 ave 1000 max 1000 min
Histogram: 1 0 0 0 0 0 0 0 0 0
Nghost:    1899 ave 1899 max 1899 min
Histogram: 1 0 0 0 0 0 0 0 0 0
Neighs:    41850 ave 41850 max 41850 min
Histogram: 1 0 0 0 0 0 0 0 0 0

Total # of neighbors = 41850
Ave neighs/atom = 41.85
Neighbor list builds = 2
Dangerous builds = 2
minimize 1e-4 1e-4 10000 10000
WARNING: Using 'neigh_modify every 1 delay 0 check yes' setting during minimization (../min.cpp:168)
Per MPI rank memory allocation (min/avg/max) = 5.819 | 5.819 | 5.819 Mbytes
Step Atoms Temp Press TotEng 
    1201     1000     353.9323    7587.7355    -3616.564 
    1210     1000     353.9323    1477.6094   -3631.1507 
    1213     1000     353.9323   -2891.2593   -3632.4128 
Loop time of 0.076155 on 1 procs for 12 steps with 1000 atoms

99.7% CPU use with 1 MPI tasks x no OpenMP threads

Minimization stats:
  Stopping criterion = energy tolerance
  Energy initial, next-to-last, final = 
         -3662.2676195     -3677.75841878     -3678.11643201
  Force two-norm initial, final = 19.1228 1.96038
  Force max component initial, final = 2.58628 0.498514
  Final line search alpha, max atom move = 0.140485 0.0700338
  Iterations, force evaluations = 12 20

MPI task timing breakdown:
Section |  min time  |  avg time  |  max time  |%varavg| %total
---------------------------------------------------------------
Pair    | 0.041585   | 0.041585   | 0.041585   |   0.0 | 54.61
Neigh   | 0.031775   | 0.031775   | 0.031775   |   0.0 | 41.72
Comm    | 0.000749   | 0.000749   | 0.000749   |   0.0 |  0.98
Output  | 0.0007     | 0.0007     | 0.0007     |   0.0 |  0.92
Modify  | 0          | 0          | 0          |   0.0 |  0.00
Other   |            | 0.001346   |            |       |  1.77

Nlocal:    1000 ave 1000 max 1000 min
Histogram: 1 0 0 0 0 0 0 0 0 0
Nghost:    1894 ave 1894 max 1894 min
Histogram: 1 0 0 0 0 0 0 0 0 0
Neighs:    41141 ave 41141 max 41141 min
Histogram: 1 0 0 0 0 0 0 0 0 0

Total # of neighbors = 41141
Ave neighs/atom = 41.141
Neighbor list builds = 15
Dangerous builds = 10
displace_atoms liquidAtoms move -0.363 0 0
run 20
Per MPI rank memory allocation (min/avg/max) = 4.694 | 4.694 | 4.694 Mbytes
Step Atoms Temp Press TotEng 
    1213     1000     353.9323    6905.5466   -3612.2892 
    1220     1000    479.48484    5435.3101   -3609.8108 
    1230     1000    482.74024    6349.8911   -3605.7571 
    1233     1000    454.65118    7221.4113    -3604.613 
Loop time of 0.040989 on 1 procs for 20 steps with 1000 atoms

Performance: 42.158 ns/day, 0.569 hours/ns, 487.936 timesteps/s
99.6% CPU use with 1 MPI tasks x no OpenMP threads

MPI task timing breakdown:
Section |  min time  |  avg time  |  max time  |%varavg| %total
---------------------------------------------------------------
Pair    | 0.034796   | 0.034796   | 0.034796   |   0.0 | 84.89
Neigh   | 0.004175   | 0.004175   | 0.004175   |   0.0 | 10.19
Comm    | 0.000229   | 0.000229   | 0.000229   |   0.0 |  0.56
Output  | 0.001416   | 0.001416   | 0.001416   |   0.0 |  3.45
Modify  | 0.000322   | 0.000322   | 0.000322   |   0.0 |  0.79
Other   |            | 5.1e-05    |            |       |  0.12

Nlocal:    1000 ave 1000 max 1000 min
Histogram: 1 0 0 0 0 0 0 0 0 0
Nghost:    1895 ave 1895 max 1895 min
Histogram: 1 0 0 0 0 0 0 0 0 0
Neighs:    41779 ave 41779 max 41779 min
Histogram: 1 0 0 0 0 0 0 0 0 0

Total # of neighbors = 41779
Ave neighs/atom = 41.779
Neighbor list builds = 2
Dangerous builds = 2
minimize 1e-4 1e-4 10000 10000
WARNING: Using 'neigh_modify every 1 delay 0 check yes' setting during minimization (../min.cpp:168)
Per MPI rank memory allocation (min/avg/max) = 5.819 | 5.819 | 5.819 Mbytes
Step Atoms Temp Press TotEng 
    1233     1000    454.65118    7221.4113    -3604.613 
    1239     1000    454.65118    4059.2982   -3618.3646 
Loop time of 0.046592 on 1 procs for 6 steps with 1000 atoms

99.6% CPU use with 1 MPI tasks x no OpenMP threads

Minimization stats:
  Stopping criterion = energy tolerance
  Energy initial, next-to-last, final = 
        -3663.32248251     -3676.75950236     -3677.07413093
  Force two-norm initial, final = 18.8435 2.05485
  Force max component initial, final = 2.50902 0.441671
  Final line search alpha, max atom move = 0.220481 0.0973801
  Iterations, force evaluations = 6 11

MPI task timing breakdown:
Section |  min time  |  avg time  |  max time  |%varavg| %total
---------------------------------------------------------------
Pair    | 0.024037   | 0.024037   | 0.024037   |   0.0 | 51.59
Neigh   | 0.020982   | 0.020982   | 0.020982   |   0.0 | 45.03
Comm    | 0.000482   | 0.000482   | 0.000482   |   0.0 |  1.03
Output  | 0          | 0          | 0          |   0.0 |  0.00
Modify  | 0          | 0          | 0          |   0.0 |  0.00
Other   |            | 0.001091   |            |       |  2.34

Nlocal:    1000 ave 1000 max 1000 min
Histogram: 1 0 0 0 0 0 0 0 0 0
Nghost:    1894 ave 1894 max 1894 min
Histogram: 1 0 0 0 0 0 0 0 0 0
Neighs:    41473 ave 41473 max 41473 min
Histogram: 1 0 0 0 0 0 0 0 0 0

Total # of neighbors = 41473
Ave neighs/atom = 41.473
Neighbor list builds = 10
Dangerous builds = 9
displace_atoms liquidAtoms move -0.363 0 0
run 20
Per MPI rank memory allocation (min/avg/max) = 4.694 | 4.694 | 4.694 Mbytes
Step Atoms Temp Press TotEng 
    1239     1000    454.65118    14265.366    -3595.639 
    1240     1000    482.28996    13936.183   -3595.2658 
    1250     1000    616.70094    12743.775   -3590.7538 
    1259     1000    548.56498    14958.842   -3586.6704 
Loop time of 0.040928 on 1 procs for 20 steps with 1000 atoms

Performance: 42.220 ns/day, 0.568 hours/ns, 488.663 timesteps/s
99.7% CPU use with 1 MPI tasks x no OpenMP threads

MPI task timing breakdown:
Section |  min time  |  avg time  |  max time  |%varavg| %total
---------------------------------------------------------------
Pair    | 0.034621   | 0.034621   | 0.034621   |   0.0 | 84.59
Neigh   | 0.004286   | 0.004286   | 0.004286   |   0.0 | 10.47
Comm    | 0.000224   | 0.000224   | 0.000224   |   0.0 |  0.55
Output  | 0.00142    | 0.00142    | 0.00142    |   0.0 |  3.47
Modify  | 0.000323   | 0.000323   | 0.000323   |   0.0 |  0.79
Other   |            | 5.4e-05    |            |       |  0.13

Nlocal:    1000 ave 1000 max 1000 min
Histogram: 1 0 0 0 0 0 0 0 0 0
Nghost:    1893 ave 1893 max 1893 min
Histogram: 1 0 0 0 0 0 0 0 0 0
Neighs:    42328 ave 42328 max 42328 min
Histogram: 1 0 0 0 0 0 0 0 0 0

Total # of neighbors = 42328
Ave neighs/atom = 42.328
Neighbor list builds = 2
Dangerous builds = 2
minimize 1e-2 1e-2 10000 10000
WARNING: Using 'neigh_modify every 1 delay 0 check yes' setting during minimization (../min.cpp:168)
Per MPI rank memory allocation (min/avg/max) = 5.819 | 5.819 | 5.819 Mbytes
Step Atoms Temp Press TotEng 
    1259     1000    548.56498    14958.842   -3586.6704 
    1260     1000    548.56498     12950.13   -3597.3186 
Loop time of 0.007001 on 1 procs for 1 steps with 1000 atoms

99.4% CPU use with 1 MPI tasks x no OpenMP threads

Minimization stats:
  Stopping criterion = energy tolerance
  Energy initial, next-to-last, final = 
        -3657.50704048     -3657.50704048     -3668.15532111
  Force two-norm initial, final = 20.5174 9.83578
  Force max component initial, final = 2.82664 1.25906
  Final line search alpha, max atom move = 0.0353777 0.0445428
  Iterations, force evaluations = 1 1

MPI task timing breakdown:
Section |  min time  |  avg time  |  max time  |%varavg| %total
---------------------------------------------------------------
Pair    | 0.00407    | 0.00407    | 0.00407    |   0.0 | 58.13
Neigh   | 0.002128   | 0.002128   | 0.002128   |   0.0 | 30.40
Comm    | 5.5e-05    | 5.5e-05    | 5.5e-05    |   0.0 |  0.79
Output  | 0          | 0          | 0          |   0.0 |  0.00
Modify  | 0          | 0          | 0          |   0.0 |  0.00
Other   |            | 0.000748   |            |       | 10.68

Nlocal:    1000 ave 1000 max 1000 min
Histogram: 1 0 0 0 0 0 0 0 0 0
Nghost:    1893 ave 1893 max 1893 min
Histogram: 1 0 0 0 0 0 0 0 0 0
Neighs:    42295 ave 42295 max 42295 min
Histogram: 1 0 0 0 0 0 0 0 0 0

Total # of neighbors = 42295
Ave neighs/atom = 42.295
Neighbor list builds = 1
Dangerous builds = 1
fix 1 all nve
run 500
WARNING: One or more atoms are time integrated more than once (../modify.cpp:289)
Per MPI rank memory allocation (min/avg/max) = 4.694 | 4.694 | 4.694 Mbytes
Step Atoms Temp Press TotEng 
    1260     1000    548.56498     12950.13   -3597.3186 
    1270     1000    300.53645    19166.351   -3593.6385 
    1280     1000    211.18426    21995.482   -3591.2096 
    1290     1000    284.14062      20443.8   -3588.7904 
    1300     1000     358.5096    18804.142   -3585.7225 
    1310     1000    376.64111    18840.879   -3582.2096 
    1320     1000    384.43138    19283.741   -3578.5216 
    1330     1000     429.0495    18794.649   -3574.6616 
    1340     1000    433.46131     19086.29   -3570.5914 
    1350     1000     443.2374    19434.633    -3566.474 
    1360     1000    477.14957     18913.72   -3562.2278 
    1370     1000    502.21323    18511.953   -3557.7998 
    1380     1000    536.33477    17304.066   -3553.1557 
    1390     1000     587.9927     14223.87   -3548.2035 
    1400     1000    676.73795    7815.3539    -3542.822 
    1410     1000    764.56335   -691.09151   -3537.0676 
    1420     1000    787.22808   -8611.6877   -3531.2945 
    1430     1000    740.01325   -14661.336   -3525.8166 
    1440     1000      688.128   -19473.843    -3520.588 
    1450     1000    653.78156   -23069.639   -3515.4175 
    1460     1000    638.53974   -25697.321   -3510.1889 
    1470     1000    678.00335   -27989.355   -3504.7684 
    1480     1000    747.86444   -29374.254   -3498.9892 
    1490     1000    779.15196   -29092.368   -3492.9595 
    1500     1000    805.96725   -27914.299   -3486.8749 
    1510     1000    809.44555   -26308.394     -3480.77 
    1520     1000    802.94176   -24858.426   -3474.6369 
    1530     1000    830.82493   -24595.696    -3468.435 
    1540     1000    868.46171   -25377.337   -3462.2191 
    1550     1000    862.33188   -25410.031    -3455.995 
    1560     1000    865.90076   -26132.162   -3449.7287 
    1570     1000    921.65545   -27798.755   -3443.3695 
    1580     1000    973.06524   -28958.444   -3436.9847 
    1590     1000    932.92285   -27953.675   -3430.6631 
    1600     1000    936.24489   -27853.058   -3424.4005 
    1610     1000    960.42685   -28236.569   -3418.3371 
    1620     1000    902.07812   -27265.366   -3412.3523 
    1630     1000    893.01936    -27512.56   -3406.3875 
    1640     1000    907.89095   -28232.012   -3400.3718 
    1650     1000    926.50076   -28601.064   -3394.2624 
    1660     1000    938.28454   -28156.477   -3388.0793 
    1670     1000    957.92012   -27387.895   -3381.8242 
    1680     1000    942.58498   -25855.725   -3375.5489 
    1690     1000    927.78156   -25105.545   -3369.1451 
    1700     1000    998.14878   -27099.536   -3362.6534 
    1710     1000    1028.1073   -28933.014   -3356.0946 
    1720     1000    1018.2299   -29891.138   -3349.2706 
    1730     1000    1044.0486   -31257.151   -3342.1589 
    1740     1000    1062.8429   -32226.909   -3334.9273 
    1750     1000    1061.6632   -32519.425   -3327.6769 
    1760     1000    1070.1225   -32993.436    -3320.357 
Loop time of 1.061 on 1 procs for 500 steps with 1000 atoms

Performance: 40.716 ns/day, 0.589 hours/ns, 471.252 timesteps/s
94.4% CPU use with 1 MPI tasks x no OpenMP threads

MPI task timing breakdown:
Section |  min time  |  avg time  |  max time  |%varavg| %total
---------------------------------------------------------------
[...]
    8510     1000    1800.7356   -862.68526   -3137.7465 
    8520     1000    1810.5701   -570.08517   -3137.5388 
    8530     1000    1864.1879   -1435.6719    -3137.504 
    8540     1000    1837.6526    -805.7931   -3137.5824 
    8550     1000    1830.2101   -243.18933   -3137.4027 
    8560     1000    1912.0929   -922.20621   -3137.3821 
    8570     1000    1884.1806    191.25524   -3137.5795 
    8580     1000    1883.0156    1202.3577    -3137.673 
    8590     1000    1840.4254    2254.3581   -3137.8273 
    8600     1000    1834.2039    2324.8493   -3137.9473 
    8610     1000    1829.7789    2208.8177   -3137.8807 
    8620     1000    1867.3391    1439.4665    -3137.814 
    8630     1000    1879.4009    841.53206   -3137.9148 
    8640     1000    1894.3445    501.91289   -3138.0932 
    8650     1000    1869.6715     637.9814   -3138.3581 
    8660     1000    1896.1733   -690.24867   -3138.6235 
    8670     1000    1852.6845   -966.03127   -3138.8701 
    8680     1000    1908.5626   -2381.8677   -3139.2728 
    8690     1000    1914.7122   -2900.4661   -3140.1199 
    8700     1000    1876.7046   -2638.1054   -3141.0567 
    8710     1000    1849.7931   -2126.2352   -3141.9256 
    8720     1000    1876.6164    -2371.473   -3142.7916 
    8730     1000    1847.7043   -2151.6035   -3143.6229 
    8740     1000    1883.9248   -2781.7223   -3144.4807 
    8750     1000    1871.5127   -2936.9129   -3145.6086 
    8760     1000    1815.4522   -2676.0978   -3146.4308 
    8770     1000    1846.5164   -3952.8408   -3147.2564 
    8780     1000    1842.5408   -5334.5691   -3148.1665 
    8790     1000    1862.8218   -6851.1411   -3149.2451 
    8800     1000    1813.8894   -6759.6249   -3150.3208 
    8810     1000     1807.632   -6603.0694   -3151.1805 
    8820     1000    1880.8001   -7816.5094   -3152.1942 
    8830     1000    1827.6265   -7349.4195    -3153.443 
    8840     1000    1780.9825   -6022.6723   -3154.3275 
    8850     1000    1818.4361   -6455.1705   -3155.0367 
    8860     1000    1819.3022   -6750.2204   -3155.9047 
    8870     1000    1802.5619   -6395.5366   -3156.6516 
    8880     1000    1791.1664   -6662.8234   -3157.2935 
    8890     1000    1793.6704   -7008.3174   -3157.8369 
    8900     1000    1785.1366    -6674.981   -3158.3242 
    8910     1000     1745.864   -5434.8196   -3158.6946 
    8920     1000    1696.6656    -4233.539   -3158.4779 
    8930     1000    1794.3594   -5783.5743   -3158.1455 
    8940     1000    1787.4296   -5903.0371   -3157.7272 
    8950     1000    1831.8686   -6778.4293   -3157.3704 
    8960     1000    1774.9604   -5751.2935    -3157.138 
    8970     1000    1736.8664   -4291.7876   -3156.4304 
    8980     1000    1769.7009   -4220.9593   -3155.5915 
    8990     1000    1771.8158   -3810.3905   -3154.5967 
    9000     1000    1791.8719   -3780.2143   -3153.6251 
    9010     1000    1768.7763   -3153.2542   -3152.3293 
    9020     1000    1839.5547    -4242.718   -3150.9465 
    9030     1000     1850.125   -5003.9089   -3149.7041 
    9040     1000    1869.9968   -6119.7429   -3148.4405 
    9050     1000    1869.4945   -6581.7128   -3147.4722 
    9060     1000    1865.0239   -6285.1302   -3146.4839 
    9070     1000    1827.8099   -5500.2664    -3145.461 
    9080     1000     1804.669    -4901.062   -3144.3269 
    9090     1000    1856.1811   -5093.5345   -3143.1321 
    9100     1000    1853.3896   -4463.5623   -3142.1838 
    9110     1000     1823.597   -3862.1743    -3140.896 
    9120     1000    1851.4876   -4589.5981   -3139.7064 
    9130     1000    1891.2089   -4899.8421   -3138.6071 
    9140     1000    1856.4514   -3750.7708   -3137.7427 
    9150     1000    1830.6224   -2693.4831   -3136.5808 
    9160     1000    1931.4186   -3670.4753    -3135.596 
    9170     1000    1940.0143   -3108.5499    -3135.084 
    9180     1000    1937.3228   -2400.0891   -3134.8107 
    9190     1000    1934.4092   -1908.1679   -3134.7195 
    9200     1000    1932.2763   -1872.1438   -3134.8925 
    9210     1000    1913.0417   -1816.2104   -3135.4052 
    9220     1000    1867.2607   -1281.5404   -3135.8473 
    9230     1000    1848.3843   -1572.9026   -3136.3859 
    9240     1000    1895.1212   -3304.5633   -3136.9466 
    9250     1000    1919.8874   -4139.0214   -3137.8151 
    9260     1000     1875.593   -3004.0584   -3138.6842 
    9270     1000    1906.3174   -3148.4014    -3139.715 
    9280     1000    1833.5477   -2195.3611   -3140.9313 
    9290     1000    1891.0135   -3437.0447   -3141.7178 
    9300     1000    1914.5779   -4509.0772    -3143.185 
    9310     1000    1887.9407   -4521.2237   -3144.7132 
    9320     1000    1860.4291   -4215.8905   -3146.2227 
    9330     1000    1890.7952   -5496.4728   -3147.6093 
    9340     1000    1934.1774   -6991.4312   -3149.5797 
    9350     1000    1844.0626   -5762.3839   -3151.5611 
    9360     1000    1800.5566    -5238.814   -3153.0563 
    9370     1000    1841.5826   -6089.6817   -3154.6427 
    9380     1000    1735.0462   -4301.7536   -3155.9383 
    9390     1000    1712.4414   -3879.0195   -3156.5622 
    9400     1000    1812.5307   -6393.5893   -3157.1547 
    9410     1000     1809.858   -7428.3521   -3157.9223 
    9420     1000    1778.5431   -7747.1834   -3158.4681 
    9430     1000    1816.1221   -8983.5785   -3158.9927 
    9440     1000    1773.8929   -8936.0248   -3159.5547 
    9450     1000    1744.8013   -8803.2188   -3159.8268 
    9460     1000    1763.0914   -9237.8373   -3159.8531 
    9470     1000    1760.2845   -9424.0236   -3159.6801 
    9480     1000    1800.6934   -9595.5598   -3159.3136 
    9490     1000    1814.7264   -9076.3429   -3158.9188 
    9500     1000    1815.9644   -8607.9982   -3158.4927 
    9510     1000    1825.0048   -8350.6361   -3158.1785 
    9520     1000    1810.4848   -7786.5618    -3157.895 
    9530     1000    1731.5789   -6312.0824   -3157.4616 
    9540     1000     1774.006   -6795.2923   -3156.7179 
    9550     1000    1804.1655   -7394.9148   -3156.2394 
    9560     1000    1779.0754   -6587.2992   -3155.6948 
    9570     1000    1774.6642   -5784.1611   -3154.8535 
    9580     1000    1832.9316   -6696.0432   -3153.9807 
    9590     1000    1837.5202   -6556.7172   -3153.1317 
    9600     1000    1812.8097   -5453.2094    -3152.197 
    9610     1000    1856.9267   -5533.3943   -3151.2261 
    9620     1000    1832.8386   -4721.7044   -3150.4657 
    9630     1000    1788.4296   -3800.9652   -3149.5465 
    9640     1000    1814.1435   -4332.8502   -3148.5012 
    9650     1000    1815.8725   -4443.6818   -3147.4038 
    9660     1000     1839.327   -4415.4366   -3146.3688 
    9670     1000    1823.0368   -3671.8033   -3145.2286 
    9680     1000    1812.4225   -2726.3158   -3144.1244 
    9690     1000     1805.773   -2443.1555   -3142.5334 
    9700     1000      1915.38   -4403.6967   -3141.0054 
    9710     1000    1928.1801     -4750.34   -3139.8391 
    9720     1000    1901.6203   -4030.8434   -3138.8545 
    9730     1000    1864.1655   -3515.6645   -3137.9671 
    9740     1000    1882.0636   -4155.4233   -3137.1665 
    9750     1000    1911.2761   -4715.1161   -3136.7316 
    9760     1000     1833.441   -3206.7529   -3136.4074 
    9770     1000    1831.4813   -2792.1336   -3136.0094 
    9780     1000     1852.304   -3583.3492   -3135.6224 
    9790     1000    1868.8626   -4669.6417   -3135.1366 
    9800     1000      1865.94   -5159.3993   -3134.8134 
    9810     1000    1886.5258    -5637.226   -3134.5741 
    9820     1000    1869.2925   -5313.4375   -3134.4084 
    9830     1000    1900.4364   -5098.9625   -3134.3657 
    9840     1000    1832.5759   -3347.6452   -3134.1656 
    9850     1000    1845.0304   -2832.5687   -3133.9181 
    9860     1000    1892.4352   -2903.4608   -3133.8607 
    9870     1000    1867.0189   -1755.6212   -3133.9065 
    9880     1000    1889.4831    -1429.745   -3133.9706 
    9890     1000    1937.7217   -1908.3215   -3134.4397 
    9900     1000    1866.6908   -542.87432   -3135.0285 
    9910     1000    1839.5105   -453.35597   -3135.4631 
    9920     1000    1876.9349   -1720.5632   -3135.9651 
    9930     1000    1875.3746    -2108.353   -3136.4821 
    9940     1000    1865.6764   -2664.1396   -3136.9976 
    9950     1000    1913.6682   -4012.5869   -3137.8791 
    9960     1000    1855.6424   -3069.6229   -3138.8733 
    9970     1000    1830.0523   -2655.8104   -3139.7097 
    9980     1000    1822.8489   -3501.9396   -3140.3865 
    9990     1000    1861.5162    -5201.195   -3141.1323 
   10000     1000    1858.6138   -5480.0125   -3142.0309 
   10010     1000    1765.8234   -4230.8767   -3142.6118 
   10020     1000    1772.4744   -4478.8903   -3142.9472 
   10030     1000    1811.5258   -5777.9726   -3143.2775 
   10040     1000    1796.0457   -6412.4453   -3143.5595 
   10050     1000    1811.6992   -7833.2044   -3143.5821 
   10060     1000    1903.1598   -9917.3049    -3143.955 
   10070     1000    1844.6655   -9010.5032   -3144.4774 
   10080     1000    1769.5931   -7248.0113   -3144.7704 
   10090     1000    1751.3105   -6409.7298   -3144.5869 
   10100     1000    1791.6301   -7075.9876   -3144.3397 
   10110     1000    1854.2149   -7917.4941   -3144.1893 
   10120     1000    1802.0213   -6803.5974   -3144.1002 
   10130     1000    1820.2796   -6170.1394   -3143.9577 
   10140     1000    1832.2458   -5269.6451   -3143.7875 
   10150     1000    1822.3988   -4916.4473    -3143.655 
   10160     1000    1846.4603   -5762.5884   -3143.3573 
   10170     1000    1914.6638   -7900.9333   -3143.2151 
   10180     1000    1959.9001   -8861.7106   -3143.4222 
   10190     1000    1862.6699   -6723.5083    -3144.018 
   10200     1000    1824.0202   -5353.3653   -3144.1713 
   10210     1000    1854.6038   -5354.4191   -3144.5923 
   10220     1000    1873.5696   -5661.9981   -3145.0225 
   10230     1000    1856.0637   -5350.4132   -3145.8952 
   10240     1000    1808.6279   -4171.3401   -3146.5118 
   10250     1000    1809.8184   -4400.6472    -3147.188 
   10260     1000    1808.3672   -4952.1306   -3147.8276 
   10270     1000    1803.9655   -5037.1044   -3148.3211 
   10280     1000     1770.081   -4427.4901   -3148.6628 
   10290     1000    1745.1757   -4026.0607   -3148.6306 
   10300     1000    1762.5124   -3990.1689   -3148.5405 
   10310     1000    1739.1274   -3598.7822   -3148.0921 
   10320     1000    1831.1715   -5507.2275   -3147.5013 
   10330     1000     1836.374   -6162.4575   -3147.1752 
   10340     1000    1852.9008   -7079.8169   -3146.7258 
   10350     1000    1823.3722   -6930.3844   -3146.4774 
   10360     1000    1802.6818   -6453.0556   -3145.7279 
   10370     1000    1846.2155   -6836.1461   -3145.1574 
   10380     1000     1834.013   -6229.7861   -3144.5285 
   10390     1000    1857.7292   -6221.4414   -3143.9739 
   10400     1000     1807.178   -5458.4883   -3143.2479 
   10410     1000    1869.0243   -6527.1826   -3142.3676 
   10420     1000    1825.8384   -6402.0309    -3141.621 
   10430     1000    1808.3775   -6214.7255   -3140.7064 
   10440     1000    1792.1545   -5941.8347    -3139.675 
   10450     1000    1897.7122   -7160.3885   -3138.4662 
   10460     1000    1929.0116   -7045.2096   -3137.8207 
   10470     1000    1822.1298   -4323.1052   -3137.0013 
   10480     1000      1860.42   -4432.7188   -3136.1592 
   10490     1000    1825.1493   -3548.5071   -3135.5415 
   10500     1000    1793.9025   -2885.9244   -3134.6621 
   10510     1000    1900.0877   -4585.8165   -3134.0252 
   10520     1000    1898.7416   -4918.7587   -3133.5194 
   10530     1000    1892.2565   -4692.9689   -3133.2191 
   10540     1000    1846.7305   -3278.8739    -3132.849 
   10550     1000    1919.0013   -3698.8129   -3132.5767 
   10560     1000    1892.4743   -2998.4594   -3132.5637 
   10570     1000    1891.4406   -2387.9069   -3132.6749 
   10580     1000    1847.6723   -1670.6765    -3132.693 
   10590     1000    1893.1642   -3190.0823   -3132.8415 
   10600     1000    1875.7974   -3738.1999   -3133.1385 
   10610     1000    1892.6845   -4414.3061   -3133.4721 
   10620     1000    1907.9569   -5478.8841   -3134.1408 
   10630     1000    1884.0418    -6229.825   -3134.8373 
   10640     1000    1896.9618   -7177.6689   -3135.7465 
   10650     1000    1824.9015   -6314.5532   -3136.5998 
   10660     1000    1798.4896   -5652.4702   -3137.2807 
   10670     1000    1791.7571   -5570.7746   -3137.8461 
   10680     1000    1806.4437   -5849.4631   -3138.2742 
   10690     1000    1832.1207   -6372.0105   -3138.6257 
   10700     1000    1803.3766   -5582.0437   -3139.0689 
   10710     1000    1783.5262   -4755.5411   -3139.1561 
   10720     1000    1804.8577   -4615.4004   -3139.1787 
   10730     1000    1800.9342   -4037.0176   -3139.0446 
   10740     1000    1800.5515   -3306.4841   -3138.7787 
   10750     1000    1834.4166   -3355.6724   -3138.5402 
   10760     1000    1852.5274   -3371.6281   -3138.4195 
   10770     1000    1802.0364   -2711.5128   -3138.1779 
   10780     1000    1832.1602   -3516.6249   -3137.7971 
   10790     1000    1827.2409   -3963.3928   -3137.4562 
   10800     1000    1840.3501   -4463.0901   -3137.0735 
   10810     1000    1847.5466   -4844.7101   -3136.5764 
   10820     1000    1898.5001   -5465.0426   -3136.4355 
   10830     1000    1790.0412    -3588.772   -3136.1568 
   10840     1000    1791.8025   -3263.1147   -3135.6735 
   10850     1000    1816.2287   -3953.1603   -3134.9776 
   10860     1000    1902.2599   -5893.9882   -3134.5223 
   10870     1000    1831.0523   -5145.9895   -3134.1532 
   10880     1000    1827.9794   -5022.6823   -3133.5847 
   10890     1000    1863.9635   -6092.4385   -3133.0246 
   10900     1000    1851.5574   -6780.7774   -3132.6377 
   10910     1000     1903.343    -7635.711   -3132.2914 
   10920     1000    1860.8648   -6354.3294    -3132.159 
   10930     1000    1835.5739   -5577.7185   -3131.8985 
   10940     1000    1836.3457   -6222.0012   -3131.7067 
   10950     1000    1858.4138   -7085.9096   -3131.4273 
   10960     1000    1895.7937   -8046.0906   -3131.3479 
   10970     1000    1898.1642   -8495.5456   -3131.2332 
   10980     1000    1925.3441    -9346.312   -3131.4371 
   10990     1000    1896.3442   -8704.7706   -3131.8805 
   11000     1000    1859.6896   -7369.6998   -3132.3841 
   11010     1000    1861.2408   -6930.1631   -3132.7609 
   11020     1000    1886.9114   -7062.4925   -3133.4887 
   11030     1000    1910.0097   -7182.9846   -3134.2387 
   11040     1000    1895.6859   -6901.2661   -3135.3892 
   11050     1000    1888.5841   -6714.5805   -3136.2803 
   11060     1000    1843.2388   -6094.3534   -3137.4086 
   11070     1000     1863.368   -6131.9908   -3138.1342 
   11080     1000    1841.4112   -5808.9013   -3139.0119 
   11090     1000    1847.6667   -5784.9455   -3139.6917 
   11100     1000    1845.2504   -5783.7296   -3140.3427 
   11110     1000    1906.0654   -6855.6215    -3141.166 
   11120     1000    1885.7003   -6335.5484   -3142.2517 
   11130     1000    1819.2929   -4656.2877   -3143.2023 
   11140     1000    1796.9167   -4503.8136   -3143.6835 
   11150     1000    1871.1958   -6345.5612   -3144.3508 
   11160     1000    1809.8999    -6067.788   -3145.0868 
   11170     1000     1801.817   -5733.1784   -3145.7212 
   11180     1000    1748.9011   -4617.7518   -3146.0314 
   11190     1000    1755.1728   -4996.3547   -3145.9208 
   11200     1000    1818.8387   -6445.7112   -3145.7285 
   11210     1000    1804.0772    -5669.664   -3145.7021 
   11220     1000      1804.67   -5269.4513   -3145.3824 
   11230     1000    1828.2883   -6048.8229   -3145.0785 
   11240     1000    1818.4193   -5864.7666   -3144.6124 
   11250     1000    1815.1162   -5617.0604   -3144.0024 
   11260     1000    1849.8896   -6376.6835   -3143.2915 
   11270     1000    1846.3001   -6389.2809   -3142.8067 
   11280     1000    1832.3379   -6281.9786   -3142.2133 
   11290     1000     1870.841   -7125.4655   -3141.8107 
   11300     1000      1842.71   -7051.3045   -3141.5772 
   11310     1000    1828.7181   -6924.2525   -3141.3149 
   11320     1000    1860.0817   -7731.1873    -3141.125 
   11330     1000    1806.0234   -6950.2057   -3140.9698 
   11340     1000    1773.5714    -5737.894   -3140.5572 
   11350     1000    1808.6982   -6019.7076   -3139.8883 
   11360     1000    1867.9094   -7021.7893   -3139.5936 
   11370     1000    1868.5629   -6847.2771    -3139.416 
   11380     1000    1896.0184    -6698.531   -3139.3051 
   11390     1000    1894.9141   -5614.1111   -3139.4298 
   11400     1000    1910.9878   -4480.5271   -3139.6566 
   11410     1000    1901.1166   -3185.3293   -3140.2981 
   11420     1000    1843.7961   -1412.4837   -3140.8366 
   11430     1000    1794.1557   -520.80773   -3141.1602 
   11440     1000    1900.1785   -2446.4318   -3141.4084 
   11450     1000    1887.6436   -2652.7522     -3142.03 
   11460     1000    1853.8853   -1880.1846   -3142.3733 
   11470     1000    1853.2559   -1855.2429   -3142.7441 
   11480     1000    1878.9271   -2137.1143   -3143.1042 
   11490     1000    1845.1348   -1562.5765   -3143.6234 
   11500     1000    1849.0597   -1916.8959   -3143.7151 
   11510     1000    1858.8884     -3042.61   -3144.0606 
   11520     1000    1879.6217   -3842.1301     -3144.39 
   11530     1000      1903.45     -4574.67   -3144.8996 
   11540     1000    1866.7583   -4170.3361    -3145.517 
   11550     1000    1825.4745    -3822.978   -3145.8358 
   11560     1000    1851.2238   -4413.8933   -3146.0958 
   11570     1000     1820.433   -4275.0886    -3146.355 
   11580     1000    1846.5079   -4394.1385   -3146.4653 
   11590     1000    1844.5169   -3591.7284   -3146.5864 
   11600     1000    1798.6058   -2153.1247   -3146.5212 
   11610     1000    1849.2454   -2608.8251   -3146.1774 
   11620     1000    1860.9323   -2832.3214   -3146.2412 
   11630     1000    1820.4774   -2023.1106   -3146.0709 
   11640     1000    1915.6482   -3177.8329   -3145.7636 
   11650     1000    1899.4595   -2700.0536   -3145.7983 
   11660     1000    1901.0066   -1994.4885   -3145.7744 
   11670     1000    1903.9738   -1375.2811   -3146.1047 
   11680     1000     1858.994   -201.47854   -3146.3748 
   11690     1000     1797.159    968.31088   -3146.6074 
   11700     1000    1815.8497    328.31963   -3146.5356 
   11710     1000    1887.9449     -1668.16   -3146.5407 
   11720     1000    1933.3929   -3257.5642   -3146.7666 
   11730     1000    1934.8006   -3318.4599   -3147.2749 
   11740     1000    1903.5156   -2614.5142   -3147.8545 
   11750     1000     1866.528   -2011.1126   -3148.3962 
   11760     1000    1863.3825   -2612.9532   -3148.7276 
Loop time of 79.0606 on 1 procs for 10000 steps with 1000 atoms

Performance: 10.928 ns/day, 2.196 hours/ns, 126.485 timesteps/s
23.6% CPU use with 1 MPI tasks x no OpenMP threads

MPI task timing breakdown:
Section |  min time  |  avg time  |  max time  |%varavg| %total
---------------------------------------------------------------
Pair    | 75.955     | 75.955     | 75.955     |   0.0 | 96.07
Neigh   | 1.9647     | 1.9647     | 1.9647     |   0.0 |  2.49
Comm    | 0.1184     | 0.1184     | 0.1184     |   0.0 |  0.15
Output  | 0.75357    | 0.75357    | 0.75357    |   0.0 |  0.95
Modify  | 0.2424     | 0.2424     | 0.2424     |   0.0 |  0.31
Other   |            | 0.0264     |            |       |  0.03

Nlocal:    1000 ave 1000 max 1000 min
Histogram: 1 0 0 0 0 0 0 0 0 0
Nghost:    1911 ave 1911 max 1911 min
Histogram: 1 0 0 0 0 0 0 0 0 0
Neighs:    37734 ave 37734 max 37734 min
Histogram: 1 0 0 0 0 0 0 0 0 0

Total # of neighbors = 37734
Ave neighs/atom = 37.734
Neighbor list builds = 1000
Dangerous builds = 1000
info system
Total wall time: 0:07:24
