ITEM: TIMESTEP
400
ITEM: NUMBER OF ATOMS
6
ITEM: BOX BOUNDS pp pp pp
0.0000000000000000e+00 8.0920000000000005e+00
0.0000000000000000e+00 4.0460000000000003e+00
0.0000000000000000e+00 4.0460000000000003e+00
ITEM: ATOMS id x y z 
1 2.91118 3.55551 1.153 
4 2.50008 1.65988 1.15417 
6 1.40867 0.77194 2.29146 
2 5.22832 0.959197 3.13103 
3 5.97094 1.96683 1.43004 
5 5.89941 0.272574 3.09268 
ITEM: TIMESTEP
410
ITEM: NUMBER OF ATOMS
6
ITEM: BOX BOUNDS pp pp pp
0.0000000000000000e+00 8.0920000000000005e+00
0.0000000000000000e+00 4.0460000000000003e+00
0.0000000000000000e+00 4.0460000000000003e+00
ITEM: ATOMS id x y z 
1 4.29443 3.85356 1.16776 
4 1.21947 2.3116 0.156724 
6 3.27228 2.2752 1.88171 
2 4.79966 0.0240575 3.12494 
3 0.196296 1.34711 0.323883 
5 2.04447 3.42041 1.55136 
ITEM: TIMESTEP
420
ITEM: NUMBER OF ATOMS
6
ITEM: BOX BOUNDS pp pp pp
0.0000000000000000e+00 8.0920000000000005e+00
0.0000000000000000e+00 4.0460000000000003e+00
0.0000000000000000e+00 4.0460000000000003e+00
ITEM: ATOMS id x y z 
1 5.84789 0.197003 0.893556 
4 0.0220637 3.0344 2.95609 
6 5.09063 3.57083 1.57927 
2 4.46781 3.33546 3.30454 
3 2.43315 0.627196 3.2958 
5 6.05706 2.46705 0.22312 
ITEM: TIMESTEP
430
ITEM: NUMBER OF ATOMS
6
ITEM: BOX BOUNDS pp pp pp
0.0000000000000000e+00 8.0920000000000005e+00
0.0000000000000000e+00 4.0460000000000003e+00
0.0000000000000000e+00 4.0460000000000003e+00
ITEM: ATOMS id x y z 
1 7.77666 0.935371 0.298084 
4 6.99164 3.71437 1.63839 
6 6.50305 0.523723 1.51208 
2 4.08746 2.82024 3.46853 
3 4.65371 3.95095 2.23616 
5 1.99809 1.28727 3.09913 
ITEM: TIMESTEP
440
ITEM: NUMBER OF ATOMS
6
ITEM: BOX BOUNDS pp pp pp
0.0000000000000000e+00 8.0920000000000005e+00
0.0000000000000000e+00 4.0460000000000003e+00
0.0000000000000000e+00 4.0460000000000003e+00
ITEM: ATOMS id x y z 
1 1.75565 1.79299 3.64015 
4 6.09366 3.96774 0.499488 
6 7.53596 2.02672 1.52106 
2 3.69565 2.41795 3.61984 
3 6.8735 3.13978 1.01423 
5 6.05618 3.93274 1.95759 
ITEM: TIMESTEP
450
ITEM: NUMBER OF ATOMS
6
ITEM: BOX BOUNDS pp pp pp
0.0000000000000000e+00 8.0920000000000005e+00
0.0000000000000000e+00 4.0460000000000003e+00
0.0000000000000000e+00 4.0460000000000003e+00
ITEM: ATOMS id x y z 
1 3.50819 2.67075 2.79349 
4 5.02805 0.667419 3.46658 
6 0.976886 3.21877 1.15417 
2 3.61346 1.99038 3.94448 
3 0.691143 2.20038 3.89852 
5 2.00888 2.48423 1.04115 
ITEM: TIMESTEP
460
ITEM: NUMBER OF ATOMS
6
ITEM: BOX BOUNDS pp pp pp
0.0000000000000000e+00 8.0920000000000005e+00
0.0000000000000000e+00 4.0460000000000003e+00
0.0000000000000000e+00 4.0460000000000003e+00
ITEM: ATOMS id x y z 
1 4.91547 3.70894 1.50178 
4 4.01047 1.38592 2.34128 
6 2.65356 0.488057 0.571374 
2 3.85501 1.41382 0.683744 
3 2.65713 1.02312 2.50473 
5 5.82696 1.16608 0.603469 
ITEM: TIMESTEP
470
ITEM: NUMBER OF ATOMS
6
ITEM: BOX BOUNDS pp pp pp
0.0000000000000000e+00 8.0920000000000005e+00
0.0000000000000000e+00 4.0460000000000003e+00
0.0000000000000000e+00 4.0460000000000003e+00
ITEM: ATOMS id x y z 
1 6.38761 0.557352 0.271624 
4 3.0525 2.3594 1.49707 
6 3.7946 1.97979 3.901 
2 4.30979 1.13441 1.65039 
3 4.75471 3.52258 0.641706 
5 1.61941 3.6784 0.24458 
ITEM: TIMESTEP
480
ITEM: NUMBER OF ATOMS
6
ITEM: BOX BOUNDS pp pp pp
0.0000000000000000e+00 8.0920000000000005e+00
0.0000000000000000e+00 4.0460000000000003e+00
0.0000000000000000e+00 4.0460000000000003e+00
ITEM: ATOMS id x y z 
1 7.92689 1.39942 3.10252 
4 1.89472 3.60865 0.925985 
6 4.6109 3.80565 2.9386 
2 5.07999 0.862424 2.85336 
3 7.02146 1.69512 2.43816 
5 5.47665 1.86067 4.03973 
ITEM: TIMESTEP
490
ITEM: NUMBER OF ATOMS
6
ITEM: BOX BOUNDS pp pp pp
0.0000000000000000e+00 8.0920000000000005e+00
0.0000000000000000e+00 4.0460000000000003e+00
0.0000000000000000e+00 4.0460000000000003e+00
ITEM: ATOMS id x y z 
1 1.8506 2.2676 1.97153 
4 0.739508 0.830904 0.426681 
6 5.16225 1.16271 1.78129 
2 6.14985 0.893137 0.0707757 
3 0.720694 3.83781 0.032238 
5 1.20372 0.193765 3.92386 
ITEM: TIMESTEP
500
ITEM: NUMBER OF ATOMS
6
ITEM: BOX BOUNDS pp pp pp
0.0000000000000000e+00 8.0920000000000005e+00
0.0000000000000000e+00 4.0460000000000003e+00
0.0000000000000000e+00 4.0460000000000003e+00
ITEM: ATOMS id x y z 
1 4.01904 3.20189 0.845991 
4 7.57706 2.5939 0.383235 
6 5.55684 2.49929 0.53545 
2 7.35228 0.945779 1.42054 
3 2.1581 1.17857 1.73625 
5 5.34729 2.81251 3.28491 
ITEM: TIMESTEP
510
ITEM: NUMBER OF ATOMS
6
ITEM: BOX BOUNDS pp pp pp
0.0000000000000000e+00 8.0920000000000005e+00
0.0000000000000000e+00 4.0460000000000003e+00
0.0000000000000000e+00 4.0460000000000003e+00
ITEM: ATOMS id x y z 
1 5.85446 0.356825 3.93715 
4 6.58121 0.433336 0.372891 
6 6.0892 3.53095 3.31529 
2 0.441033 0.913835 2.8016 
3 3.60819 2.54814 3.47268 
5 1.34451 1.40285 2.39877 
ITEM: TIMESTEP
520
ITEM: NUMBER OF ATOMS
6
ITEM: BOX BOUNDS pp pp pp
0.0000000000000000e+00 8.0920000000000005e+00
0.0000000000000000e+00 4.0460000000000003e+00
0.0000000000000000e+00 4.0460000000000003e+00
ITEM: ATOMS id x y z 
1 6.77684 2.05016 2.82074 
4 6.35594 2.59221 1.07789 
6 6.7456 3.72523 1.56013 
2 1.49669 0.741595 0.439079 
3 5.06055 3.95972 1.16579 
5 5.57499 0.16301 1.14274 
ITEM: TIMESTEP
530
ITEM: NUMBER OF ATOMS
6
ITEM: BOX BOUNDS pp pp pp
0.0000000000000000e+00 8.0920000000000005e+00
0.0000000000000000e+00 4.0460000000000003e+00
0.0000000000000000e+00 4.0460000000000003e+00
ITEM: ATOMS id x y z 
1 7.76538 3.63374 1.7299 
4 6.01526 0.472714 1.75092 
6 7.94383 3.95843 3.9646 
2 2.54726 0.555953 2.18433 
3 5.90573 0.894224 3.25611 
5 1.83314 3.71687 3.41252 
ITEM: TIMESTEP
540
ITEM: NUMBER OF ATOMS
6
ITEM: BOX BOUNDS pp pp pp
0.0000000000000000e+00 8.0920000000000005e+00
0.0000000000000000e+00 4.0460000000000003e+00
0.0000000000000000e+00 4.0460000000000003e+00
ITEM: ATOMS id x y z 
1 0.775541 1.10179 0.71497 
4 5.49405 2.38872 2.32186 
6 1.13404 0.464699 2.40196 
2 3.61522 0.400919 3.89814 
3 6.62338 1.80139 1.42944 
5 6.27638 3.02842 1.48599 
ITEM: TIMESTEP
550
ITEM: NUMBER OF ATOMS
6
ITEM: BOX BOUNDS pp pp pp
0.0000000000000000e+00 8.0920000000000005e+00
0.0000000000000000e+00 4.0460000000000003e+00
0.0000000000000000e+00 4.0460000000000003e+00
ITEM: ATOMS id x y z 
1 1.85245 2.67314 3.62876 
4 4.79153 0.186869 3.13817 
6 2.43995 1.11573 1.04481 
2 4.67437 0.277208 1.56087 
3 7.41334 2.49298 3.47277 
5 2.74698 2.44001 3.45299 
ITEM: TIMESTEP
560
ITEM: NUMBER OF ATOMS
6
ITEM: BOX BOUNDS pp pp pp
0.0000000000000000e+00 8.0920000000000005e+00
0.0000000000000000e+00 4.0460000000000003e+00
0.0000000000000000e+00 4.0460000000000003e+00
ITEM: ATOMS id x y z 
1 2.60946 0.559177 2.67552 
4 4.19581 2.05644 0.0495216 
6 3.62343 1.7441 3.80806 
2 5.74615 0.156249 3.10789 
3 0.120626 3.1826 1.46612 
5 7.62314 1.48736 1.14525 
ITEM: TIMESTEP
570
ITEM: NUMBER OF ATOMS
6
ITEM: BOX BOUNDS pp pp pp
0.0000000000000000e+00 8.0920000000000005e+00
0.0000000000000000e+00 4.0460000000000003e+00
0.0000000000000000e+00 4.0460000000000003e+00
ITEM: ATOMS id x y z 
1 3.22738 2.50018 1.62792 
4 4.35711 0.195578 1.25859 
6 4.1583 2.14671 2.45287 
2 6.86615 3.89553 0.517593 
3 0.925635 3.88272 3.50709 
5 4.38405 0.611212 2.8883 
ITEM: TIMESTEP
580
ITEM: NUMBER OF ATOMS
6
ITEM: BOX BOUNDS pp pp pp
0.0000000000000000e+00 8.0920000000000005e+00
0.0000000000000000e+00 4.0460000000000003e+00
0.0000000000000000e+00 4.0460000000000003e+00
ITEM: ATOMS id x y z 
1 3.53232 0.364923 0.20401 
4 4.63141 2.20054 2.37126 
6 5.01882 2.80118 1.32847 
2 8.04746 3.42915 1.9573 
3 1.73112 0.571438 1.49898 
5 0.957476 3.86471 0.846349 
ITEM: TIMESTEP
590
ITEM: NUMBER OF ATOMS
6
ITEM: BOX BOUNDS pp pp pp
0.0000000000000000e+00 8.0920000000000005e+00
0.0000000000000000e+00 4.0460000000000003e+00
0.0000000000000000e+00 4.0460000000000003e+00
ITEM: ATOMS id x y z 
1 3.88695 2.22478 2.73684 
4 4.779 3.77847 3.69042 
6 6.03698 3.91364 0.0297309 
2 1.04241 2.93173 3.44652 
3 2.64825 1.53656 3.59211 
5 5.52502 2.89275 2.80276 
ITEM: TIMESTEP
600
ITEM: NUMBER OF ATOMS
6
ITEM: BOX BOUNDS pp pp pp
0.0000000000000000e+00 8.0920000000000005e+00
0.0000000000000000e+00 4.0460000000000003e+00
0.0000000000000000e+00 4.0460000000000003e+00
ITEM: ATOMS id x y z 
1 3.95812 0.267764 1.41455 
4 4.61503 1.38314 0.919251 
6 7.26976 1.09492 3.02398 
2 2.05197 2.4473 0.874233 
3 3.42947 2.51334 1.62646 
5 2.59427 1.47947 0.347906 
ITEM: TIMESTEP
610
ITEM: NUMBER OF ATOMS
6
ITEM: BOX BOUNDS pp pp pp
0.0000000000000000e+00 8.0920000000000005e+00
0.0000000000000000e+00 4.0460000000000003e+00
0.0000000000000000e+00 4.0460000000000003e+00
ITEM: ATOMS id x y z 
1 3.87766 2.30602 0.261542 
4 4.8136 3.32052 2.08448 
6 0.425461 2.32813 1.96658 
2 2.78555 2.1271 2.34703 
3 4.04194 3.56669 3.86361 
5 7.97441 3.62947 1.72913 
ITEM: TIMESTEP
620
ITEM: NUMBER OF ATOMS
6
ITEM: BOX BOUNDS pp pp pp
0.0000000000000000e+00 8.0920000000000005e+00
0.0000000000000000e+00 4.0460000000000003e+00
0.0000000000000000e+00 4.0460000000000003e+00
ITEM: ATOMS id x y z 
1 3.46336 3.92017 2.8633 
4 5.16518 1.33356 3.28293 
6 1.73085 3.46923 0.933519 
2 3.41648 1.74336 3.77252 
3 4.93384 0.944006 2.36435 
5 5.20888 1.82161 3.08175 
ITEM: TIMESTEP
630
ITEM: NUMBER OF ATOMS
6
ITEM: BOX BOUNDS pp pp pp
0.0000000000000000e+00 8.0920000000000005e+00
0.0000000000000000e+00 4.0460000000000003e+00
0.0000000000000000e+00 4.0460000000000003e+00
ITEM: ATOMS id x y z 
1 2.77674 1.37616 1.56549 
4 5.75341 3.04385 1.24834 
6 3.0154 0.472845 3.86716 
2 4.01381 1.41338 1.00265 
3 5.90476 2.1794 0.437999 
5 2.4545 0.700311 0.0847275 
ITEM: TIMESTEP
640
ITEM: NUMBER OF ATOMS
6
ITEM: BOX BOUNDS pp pp pp
0.0000000000000000e+00 8.0920000000000005e+00
0.0000000000000000e+00 4.0460000000000003e+00
0.0000000000000000e+00 4.0460000000000003e+00
ITEM: ATOMS id x y z 
1 1.73321 2.80418 0.840737 
4 6.31835 0.725943 3.88797 
6 4.55934 1.00744 2.29011 
2 5.10845 1.4272 1.95567 
3 6.95139 3.37037 1.95551 
5 7.33986 3.8968 1.32236 
ITEM: TIMESTEP
650
ITEM: NUMBER OF ATOMS
6
ITEM: BOX BOUNDS pp pp pp
0.0000000000000000e+00 8.0920000000000005e+00
0.0000000000000000e+00 4.0460000000000003e+00
0.0000000000000000e+00 4.0460000000000003e+00
ITEM: ATOMS id x y z 
1 0.676558 0.185959 0.122775 
4 6.96567 2.55476 2.31397 
6 5.33229 0.973474 0.927801 
2 6.78772 1.97256 2.84553 
3 7.85091 0.34828 3.62675 
5 4.39748 3.1509 2.41555 
ITEM: TIMESTEP
660
ITEM: NUMBER OF ATOMS
6
ITEM: BOX BOUNDS pp pp pp
0.0000000000000000e+00 8.0920000000000005e+00
0.0000000000000000e+00 4.0460000000000003e+00
0.0000000000000000e+00 4.0460000000000003e+00
ITEM: ATOMS id x y z 
1 0.0621251 1.67787 3.54367 
4 7.81578 0.856968 3.98725 
6 5.89568 0.806581 3.54529 
2 0.0213774 2.18819 0.306009 
3 0.569641 1.25818 1.40903 
5 1.462 2.39815 3.50713 
ITEM: TIMESTEP
670
ITEM: NUMBER OF ATOMS
6
ITEM: BOX BOUNDS pp pp pp
0.0000000000000000e+00 8.0920000000000005e+00
0.0000000000000000e+00 4.0460000000000003e+00
0.0000000000000000e+00 4.0460000000000003e+00
ITEM: ATOMS id x y z 
1 7.57295 3.1023 2.52168 
4 0.304828 2.40072 1.39432 
6 6.42824 0.638591 2.11735 
2 1.20981 3.29413 2.01623 
3 1.60975 2.16422 3.70551 
5 6.79304 1.63197 0.497288 
ITEM: TIMESTEP
680
ITEM: NUMBER OF ATOMS
6
ITEM: BOX BOUNDS pp pp pp
0.0000000000000000e+00 8.0920000000000005e+00
0.0000000000000000e+00 4.0460000000000003e+00
0.0000000000000000e+00 4.0460000000000003e+00
ITEM: ATOMS id x y z 
1 6.76139 0.435712 1.93873 
4 1.05078 3.53863 2.35359 
6 6.86549 0.609199 0.559028 
2 2.80995 0.826466 3.74839 
3 2.73542 3.09376 2.02391 
5 3.69558 0.682173 1.62873 
ITEM: TIMESTEP
690
ITEM: NUMBER OF ATOMS
6
ITEM: BOX BOUNDS pp pp pp
0.0000000000000000e+00 8.0920000000000005e+00
0.0000000000000000e+00 4.0460000000000003e+00
0.0000000000000000e+00 4.0460000000000003e+00
ITEM: ATOMS id x y z 
1 5.97743 1.66608 1.72491 
4 1.75962 0.655217 3.18282 
6 7.24522 0.744117 2.68879 
2 4.47122 2.5246 1.41592 
3 3.90252 4.01809 0.245496 
5 0.562601 3.62382 2.99444 
ITEM: TIMESTEP
700
ITEM: NUMBER OF ATOMS
6
ITEM: BOX BOUNDS pp pp pp
0.0000000000000000e+00 8.0920000000000005e+00
0.0000000000000000e+00 4.0460000000000003e+00
0.0000000000000000e+00 4.0460000000000003e+00
ITEM: ATOMS id x y z 
1 5.27887 2.77517 1.48012 
4 2.59486 2.05492 3.73981 
6 7.63972 0.90873 0.799293 
2 6.12446 0.374462 3.34962 
3 4.83281 0.883019 2.30266 
5 5.5399 2.18963 0.580873 
ITEM: TIMESTEP
710
ITEM: NUMBER OF ATOMS
6
ITEM: BOX BOUNDS pp pp pp
0.0000000000000000e+00 8.0920000000000005e+00
0.0000000000000000e+00 4.0460000000000003e+00
0.0000000000000000e+00 4.0460000000000003e+00
ITEM: ATOMS id x y z 
1 4.45721 3.9859 1.45675 
4 3.4177 3.46167 0.251867 
6 0.164829 1.04846 2.95497 
2 7.60009 2.39196 1.37835 
3 5.45187 1.698 0.290033 
5 2.82691 0.645936 1.8744 
ITEM: TIMESTEP
720
ITEM: NUMBER OF ATOMS
6
ITEM: BOX BOUNDS pp pp pp
0.0000000000000000e+00 8.0920000000000005e+00
0.0000000000000000e+00 4.0460000000000003e+00
0.0000000000000000e+00 4.0460000000000003e+00
ITEM: ATOMS id x y z 
1 3.72485 1.24151 1.71436 
4 4.13755 0.689948 0.509969 
6 0.93181 1.15404 1.02535 
2 0.825041 0.431559 3.45233 
3 6.14502 2.5346 2.31267 
5 0.0623392 3.13427 3.23769 
ITEM: TIMESTEP
730
ITEM: NUMBER OF ATOMS
6
ITEM: BOX BOUNDS pp pp pp
0.0000000000000000e+00 8.0920000000000005e+00
0.0000000000000000e+00 4.0460000000000003e+00
0.0000000000000000e+00 4.0460000000000003e+00
ITEM: ATOMS id x y z 
1 2.94706 2.726 2.39332 
4 4.85905 1.77456 0.339569 
6 1.23298 0.984571 4.04373 
2 2.62712 3.00425 0.420944 
3 6.824 3.3223 0.297031 
5 5.42839 1.42025 0.711778 
ITEM: TIMESTEP
740
ITEM: NUMBER OF ATOMS
6
ITEM: BOX BOUNDS pp pp pp
0.0000000000000000e+00 8.0920000000000005e+00
0.0000000000000000e+00 4.0460000000000003e+00
0.0000000000000000e+00 4.0460000000000003e+00
ITEM: ATOMS id x y z 
1 2.14122 0.147804 3.08312 
4 5.2691 3.25469 3.99887 
6 1.0773 0.411454 3.50919 
2 4.81729 1.93897 1.01896 
3 7.49372 0.0445158 2.33767 
5 3.11998 3.3885 2.35056 
ITEM: TIMESTEP
750
ITEM: NUMBER OF ATOMS
6
ITEM: BOX BOUNDS pp pp pp
0.0000000000000000e+00 8.0920000000000005e+00
0.0000000000000000e+00 4.0460000000000003e+00
0.0000000000000000e+00 4.0460000000000003e+00
ITEM: ATOMS id x y z 
1 1.69455 1.68232 3.62787 
4 5.68904 0.81409 3.5394 
6 0.427307 3.85756 3.11076 
2 6.96453 0.804753 1.7632 
3 0.0203311 0.799694 0.319954 
5 1.03085 1.22751 3.93718 
ITEM: TIMESTEP
760
ITEM: NUMBER OF ATOMS
6
ITEM: BOX BOUNDS pp pp pp
0.0000000000000000e+00 8.0920000000000005e+00
0.0000000000000000e+00 4.0460000000000003e+00
0.0000000000000000e+00 4.0460000000000003e+00
ITEM: ATOMS id x y z 
1 1.8085 3.41971 3.81598 
4 6.10333 2.43155 3.05968 
6 7.62635 2.79778 2.78035 
2 1.08504 3.59 2.63059 
3 0.42488 1.45926 2.20244 
5 6.87051 3.57964 1.80933 
ITEM: TIMESTEP
770
ITEM: NUMBER OF ATOMS
6
ITEM: BOX BOUNDS pp pp pp
0.0000000000000000e+00 8.0920000000000005e+00
0.0000000000000000e+00 4.0460000000000003e+00
0.0000000000000000e+00 4.0460000000000003e+00
ITEM: ATOMS id x y z 
1 2.02212 0.986343 0.33388 
4 6.2724 0.0439366 2.64399 
6 6.76815 1.4085 2.9233 
2 3.70671 2.34142 3.34932 
3 0.763237 1.91288 3.50353 
5 4.38599 2.49286 3.54435 
ITEM: TIMESTEP
780
ITEM: NUMBER OF ATOMS
6
ITEM: BOX BOUNDS pp pp pp
0.0000000000000000e+00 8.0920000000000005e+00
0.0000000000000000e+00 4.0460000000000003e+00
0.0000000000000000e+00 4.0460000000000003e+00
ITEM: ATOMS id x y z 
1 2.28622 2.53366 1.07911 
4 6.14396 1.42266 1.73765 
6 6.252 0.287398 3.52434 
2 5.77869 1.74018 0.108274 
3 0.96787 2.38087 0.681312 
5 2.48987 0.821165 1.07569 
ITEM: TIMESTEP
790
ITEM: NUMBER OF ATOMS
6
ITEM: BOX BOUNDS pp pp pp
0.0000000000000000e+00 8.0920000000000005e+00
0.0000000000000000e+00 4.0460000000000003e+00
0.0000000000000000e+00 4.0460000000000003e+00
ITEM: ATOMS id x y z 
1 2.68665 0.107578 1.84738 
4 5.89702 2.62561 0.552776 
6 5.86738 3.32691 0.22614 
2 7.80016 1.28764 1.08269 
3 0.94884 2.89727 1.86224 
5 0.71857 2.98693 2.63514 
ITEM: TIMESTEP
800
ITEM: NUMBER OF ATOMS
6
ITEM: BOX BOUNDS pp pp pp
0.0000000000000000e+00 8.0920000000000005e+00
0.0000000000000000e+00 4.0460000000000003e+00
0.0000000000000000e+00 4.0460000000000003e+00
ITEM: ATOMS id x y z 
1 3.18051 1.71565 2.6299 
4 5.94083 2.27513 3.6243 
6 5.03627 3.88151 0.650577 
2 1.88577 0.804167 1.69474 
3 1.3452 3.19683 2.79559 
5 6.53002 1.35864 0.857261 
