ITEM: TIMESTEP
100
ITEM: NUMBER OF ATOMS
204
ITEM: BOX BOUNDS pp pp pp
0.0000000000000000e+00 2.0000000000000000e+01
0.0000000000000000e+00 1.0000000000000000e+01
0.0000000000000000e+00 1.0000000000000000e+01
ITEM: ATOMS x y z c_cna c_centro 
0.181076 1.21943 0.744026 5 6.34846 
2.194 2.3587 0.303989 5 2.95354 
2.48299 0.11254 1.81089 5 7.30424 
1.0777 2.55181 2.43681 5 6.87579 
3.69582 0.682931 0.092034 5 5.4521 
3.44473 1.93032 1.9354 5 5.38009 
0.288721 3.57282 0.320115 5 4.08387 
2.22872 3.81007 1.91814 5 2.69762 
3.85701 3.60461 0.291455 5 0.537488 
0.184238 0.725316 3.69034 5 5.58428 
2.314 2.10778 3.93608 5 5.78311 
3.94937 0.58521 3.71765 5 4.74854 
0.0400195 4.09765 3.5898 5 7.54122 
3.76784 3.71342 3.54915 5 1.242 
5.61122 2.00601 0.341867 5 1.19318 
5.25345 0.454308 1.72278 5 2.64082 
7.08762 0.387572 0.46779 5 1.15527 
7.11529 2.05946 2.03945 5 0.438154 
5.23535 3.53368 1.94014 5 3.72573 
7.32061 3.69585 0.252027 5 1.17198 
5.57926 2.21113 3.59356 5 3.76636 
6.82657 0.218009 3.74134 5 3.16365 
7.25608 3.73412 3.93607 5 2.63791 
8.57334 1.93057 0.223575 5 8.11482 
8.80801 0.403987 2.12591 5 4.40177 
9.12551 3.87871 2.1939 5 8.32702 
8.5917 1.96103 3.78437 5 8.49971 
10.7975 2.83256 0.606882 5 8.93423 
10.4845 0.0832461 0.23298 5 9.39636 
11.6772 1.73852 2.22076 5 6.81515 
12.2091 4.0516 2.36458 5 5.86592 
10.6795 2.90707 3.77645 5 7.15747 
10.5987 0.351616 3.85174 5 6.43795 
12.7293 0.0354665 0.399647 5 5.83377 
13.0798 2.69467 0.36652 5 1.61964 
15.3137 3.02943 0.377787 5 5.02136 
13.8696 1.2633 2.02684 5 5.86258 
14.3796 3.83044 2.18197 5 1.38921 
14.9075 0.662772 0.332559 5 8.16152 
12.8426 9.79511 3.63642 5 7.66426 
13.1723 2.67299 3.85501 5 3.64502 
15.3234 3.08763 3.70284 5 6.2106 
14.8191 0.889744 3.73426 5 8.35597 
16.9523 9.61505 9.99654 5 8.14269 
16.2998 1.49774 2.02999 5 1.6468 
16.6419 3.77463 2.00653 5 2.33244 
17.5909 2.02268 0.329263 5 6.61366 
18.4226 1.20558 2.37249 5 6.7419 
18.7599 3.36748 2.17318 5 7.36456 
16.7796 9.91721 3.70425 5 4.25692 
17.2456 2.17823 3.85628 5 5.44497 
2.36616 5.22986 0.410645 5 4.78157 
0.653816 4.91384 1.6583 5 8.92618 
3.84448 5.52147 2.00607 5 2.64609 
19.9621 7.37767 0.358735 5 6.59043 
2.09937 8.70798 0.195558 5 5.3273 
1.987 7.25725 2.02176 5 5.56658 
0.258908 9.26107 2.11317 5 7.06068 
4.07067 6.87682 0.0521471 5 4.29387 
3.87639 8.16539 1.6131 5 8.54285 
2.21416 4.93333 3.6819 5 7.43389 
0.613871 7.2187 3.81774 5 8.03313 
2.27707 8.77003 3.58007 5 3.94227 
3.58523 7.02972 3.69218 5 3.39327 
5.62112 5.08745 0.585515 5 5.46613 
7.45407 5.39339 1.97288 5 3.27789 
5.50516 8.6151 0.275443 5 1.3263 
5.72422 7.22292 2.24345 5 6.29318 
6.77749 6.86052 0.395179 5 5.86764 
7.10591 8.8547 2.06871 5 2.63893 
5.87129 5.39992 3.39524 5 6.75049 
5.06446 8.8334 3.27719 5 6.32216 
7.56712 7.10507 3.92915 5 5.71944 
8.55945 5.44932 0.332585 5 7.57151 
8.64707 8.86248 0.189287 5 5.61088 
9.16684 6.54423 2.17287 5 7.48192 
8.64775 5.21455 3.82698 5 7.5759 
8.79686 8.8654 3.69066 5 2.03616 
10.4412 7.4725 0.2634 5 8.58244 
10.5938 4.99054 0.48843 5 2.01427 
11.9906 6.16688 2.05416 5 3.09016 
10.4857 8.91644 2.36134 5 6.16264 
10.4588 7.41539 3.95982 5 10.9159 
10.4374 5.10046 3.82313 5 2.87831 
13.1708 4.97879 0.446553 5 1.42637 
12.7067 7.16473 0.21258 5 7.72584 
14.9035 7.60831 0.480048 5 5.50117 
14.1746 6.37895 2.1761 5 3.17049 
12.8056 8.38055 1.93684 5 6.02261 
15.6552 5.17541 0.366611 5 5.15686 
13.3535 5.08085 3.84139 5 4.23485 
13.014 7.34515 3.72535 5 4.70051 
15.2327 7.60893 3.80527 5 7.2723 
16.0238 4.83567 3.66882 5 6.99625 
18.1874 5.08542 0.597478 5 6.76562 
16.3115 6.18795 2.0262 5 3.52275 
15.4851 8.95316 2.09753 5 5.21411 
17.2468 7.06222 0.133022 5 7.49289 
19.1746 6.44533 2.3294 5 6.17672 
17.8081 8.84632 1.88166 5 7.96508 
18.1633 4.95465 3.81624 5 7.28039 
17.4493 6.93484 3.45733 5 9.51796 
2.21566 9.87006 5.4438 5 10.2305 
0.42435 2.08033 5.10991 5 6.96862 
3.79146 1.86102 5.44515 5 2.26795 
2.10959 3.5929 5.23728 5 1.12108 
0.274541 0.555543 6.8792 5 6.41313 
2.16314 2.36599 6.94295 5 5.11446 
2.13361 0.565201 8.84049 5 2.50059 
0.273027 2.19114 8.58179 5 5.54635 
3.84302 0.590064 7.27096 5 4.57387 
3.93017 1.96091 8.61792 5 0.825068 
0.119435 3.81854 7.12172 5 5.01193 
2.16089 3.85599 8.66391 5 1.51384 
4.13636 3.58006 6.86158 5 2.77667 
5.34696 0.16994 5.63468 5 3.41598 
7.18137 1.59332 5.34251 5 5.83342 
5.49953 3.45504 5.27245 5 2.10592 
5.74314 1.82191 7.0251 5 1.89092 
5.61273 0.195933 8.6633 5 1.34739 
7.06885 0.1757 7.05418 5 1.56677 
7.24831 2.01747 8.67207 5 0.820617 
5.59524 3.54308 8.60171 5 0.734911 
7.05794 3.77099 6.92158 5 2.01645 
8.87006 0.522864 5.27992 5 2.77127 
9.25226 4.0114 5.06927 5 7.35586 
8.4468 2.09024 6.59359 5 8.08155 
9.02797 0.473642 8.51845 5 3.9689 
8.97543 3.62067 8.49824 5 6.53233 
11.6016 1.7816 5.21151 5 8.86755 
12.0983 4.04639 5.1227 5 4.54608 
10.5943 2.8204 6.75152 5 8.07288 
10.6296 0.431292 6.77841 5 10.2651 
11.5482 1.69166 8.97514 5 7.90924 
11.8018 4.03263 8.85524 1 2.93129 
13.6845 1.07622 5.26967 5 8.60114 
14.3042 3.84915 5.30246 5 1.38084 
12.8272 9.99335 6.81029 5 6.55328 
12.9371 2.62687 6.88167 5 1.20434 
15.3812 2.92623 6.94188 5 6.04763 
13.5836 1.13887 8.71799 5 8.92349 
13.9661 3.74796 8.64238 5 3.17779 
14.9584 0.78501 6.91417 5 8.43731 
16.1129 1.48502 5.20151 5 4.96598 
16.7014 3.75489 5.2942 5 3.41954 
18.7656 1.06398 5.26236 5 10.5507 
18.5532 3.41143 5.25048 5 7.9436 
16.7566 9.4825 7.31163 5 7.88237 
16.2352 1.54012 8.65401 5 3.39204 
16.3901 3.88013 8.69979 5 3.68296 
17.31 1.72574 6.80876 5 11.2648 
18.719 0.99396 8.77535 5 6.1765 
18.3325 3.58961 8.70616 5 8.29177 
0.397116 5.04528 5.37288 5 4.81952 
3.73981 5.20395 5.34068 1 0.739036 
2.02109 7.286 5.35535 5 4.43234 
0.142753 9.02592 5.28173 5 5.8146 
3.86861 8.56091 5.35879 5 1.25636 
2.06499 5.06396 7.09675 5 4.47402 
0.346711 4.91051 8.83533 5 8.2513 
4.10797 5.24645 8.66869 5 2.22434 
0.515095 7.39574 6.83625 5 9.66802 
2.30074 8.58644 7.15081 5 2.96306 
1.97454 6.91554 8.56814 5 2.57723 
0.465146 8.56761 8.69117 5 8.84374 
3.75899 6.82792 7.11043 5 2.05367 
3.98631 8.57779 8.67168 5 1.59798 
7.15198 5.60364 5.32668 5 2.90473 
5.43743 7.22207 5.29704 5 2.17338 
7.00893 8.76242 5.32183 5 1.68062 
5.41312 5.37757 6.87003 5 1.10698 
7.20415 5.31297 8.603 5 1.25555 
5.27378 8.57485 6.96857 5 1.85635 
5.81986 7.27933 8.47937 5 6.39085 
7.10231 6.82524 7.01544 5 1.7536 
7.1436 8.65383 8.83191 5 2.63201 
8.81036 6.79948 5.34804 5 5.10372 
8.6968 5.29645 6.77821 5 6.44713 
8.80892 8.83937 6.87826 5 1.44616 
9.10013 6.61743 8.55808 5 8.27573 
12.0341 6.12271 5.13299 5 5.03206 
10.0049 8.90663 5.30105 5 7.85649 
10.4387 7.17193 6.66581 5 10.9825 
10.6545 5.00531 6.74272 5 3.34423 
11.6286 6.18914 8.84061 5 3.58616 
10.4763 8.8658 8.13745 5 7.07124 
14.1423 6.53192 5.2632 5 4.90119 
12.6435 8.6651 5.23153 5 3.78974 
13.2179 5.09683 6.83071 5 2.68909 
12.5814 7.28118 7.04178 5 6.42649 
14.709 7.50983 7.023 5 4.85203 
13.9473 6.35546 8.73259 5 4.32491 
12.5643 8.71826 8.88245 5 7.01039 
15.739 4.96263 6.83076 5 6.90029 
16.2902 6.35337 5.13932 5 6.25668 
14.9588 8.91892 5.31485 5 6.96154 
18.9484 6.80141 5.25493 5 5.54859 
17.3482 8.32323 5.3148 5 8.05475 
17.9408 4.98028 6.51702 5 7.02337 
16.0975 6.12611 8.56693 5 3.61726 
15.3025 8.90657 8.71644 5 6.89018 
17.1017 7.05105 7.07741 5 8.79236 
18.7649 6.35875 8.41098 5 9.55222 
18.6042 8.43341 8.6991 5 7.6811 
