ITEM: TIMESTEP
200
ITEM: NUMBER OF ATOMS
204
ITEM: BOX BOUNDS pp pp pp
0.0000000000000000e+00 2.0000000000000000e+01
0.0000000000000000e+00 1.0000000000000000e+01
0.0000000000000000e+00 1.0000000000000000e+01
ITEM: ATOMS x y z c_cna c_centro 
19.7863 0.0517442 0.254067 5 8.02997 
2.31271 2.17598 0.251506 5 5.10438 
2.14143 0.397174 2.01386 5 2.52826 
0.713704 1.97701 1.99807 5 7.36136 
3.83862 0.511006 0.383789 5 2.06826 
3.78947 2.02867 1.96897 1 0.551177 
0.354545 3.27013 0.142659 5 5.46417 
2.12218 3.78599 2.15799 5 2.69604 
3.88419 3.78467 0.579834 5 1.41537 
0.0952401 0.164118 3.74198 5 8.41885 
2.11452 2.05697 3.81627 1 1.44595 
3.70182 9.84764 3.47728 5 3.40808 
0.607596 3.75089 3.72257 5 4.9652 
3.85549 3.7065 3.76394 5 1.22809 
5.48537 2.12977 0.354041 5 0.620144 
5.30586 0.196578 1.89291 5 1.09864 
7.17476 0.429107 0.426271 5 1.23427 
7.13764 2.0687 1.80253 5 1.48674 
5.4647 3.96322 2.09156 5 2.32437 
7.37194 3.7997 0.406268 5 0.926819 
5.22891 1.75537 3.53432 5 2.66725 
7.04057 0.390323 3.44981 5 0.998836 
6.83866 3.62366 3.64233 5 4.90676 
8.81044 2.0549 0.235271 5 4.96658 
8.95248 0.653946 2.00015 5 4.12043 
9.17098 3.85565 2.01222 5 8.09385 
8.36522 2.1531 3.55951 5 7.14362 
10.7631 2.80916 0.701193 5 8.83039 
10.6185 0.181692 0.39754 5 6.32698 
11.5318 1.24046 2.10352 5 3.11468 
12.3486 3.86034 2.26074 5 6.59855 
10.9364 2.7697 3.46283 5 10.065 
10.3457 0.67831 3.87911 5 7.14961 
12.7204 0.561939 0.396011 5 8.34385 
13.1131 2.72666 0.217197 5 4.18925 
15.3386 2.61714 0.246755 5 1.98546 
13.9838 1.66891 2.1041 5 5.27981 
14.3536 3.83541 1.95607 5 0.977385 
14.7318 0.387872 0.532984 5 7.08444 
12.562 9.94145 3.72858 5 4.78049 
13.0648 2.51219 3.84974 5 1.81017 
15.5532 2.83957 3.63457 5 4.15926 
14.9831 0.0737469 3.65156 5 5.17682 
16.8782 9.66894 0.175121 5 6.90012 
16.4996 1.48667 1.95037 1 3.16358 
16.5035 3.99859 1.87867 1 2.53434 
18.1631 2.15379 0.456787 5 9.39856 
18.7417 0.797709 1.90003 5 10.4579 
18.7794 3.7707 2.18389 5 9.07673 
17.3504 0.0846406 3.53608 5 6.4421 
17.7295 2.34387 3.76154 5 4.79616 
2.32889 5.21809 0.410194 5 6.08523 
0.363246 4.98273 1.38631 5 8.87594 
3.93014 5.43117 2.12819 5 1.39142 
0.0788877 7.33158 9.94061 5 6.54592 
1.78035 8.90312 0.308164 5 3.17827 
1.75457 6.9173 1.64901 5 6.81431 
0.16432 8.54981 2.05912 5 4.75799 
3.76277 6.75496 0.447551 5 3.43635 
3.47792 8.55491 1.71333 5 4.069 
2.101 5.7549 3.47387 5 5.8522 
0.160482 7.42897 3.76246 5 10.6227 
2.20291 8.11309 3.59394 5 7.38123 
3.95114 7.0864 3.67796 5 4.67225 
5.56287 5.33036 0.399179 5 0.480902 
7.25057 5.16888 2.10596 5 1.41856 
5.4991 8.5321 0.117961 5 2.16225 
5.37209 7.16476 1.90445 5 2.266 
7.553 6.9582 0.437152 5 3.77671 
7.08737 8.86246 1.83277 5 2.48177 
5.39154 5.45161 3.70188 5 0.541443 
5.51473 8.40009 3.54319 5 1.78604 
7.20886 6.96995 3.3912 5 2.90802 
9.02766 5.26649 0.163849 5 4.30534 
8.88599 8.77885 0.478241 5 2.6784 
9.08774 6.49965 2.06818 5 7.86358 
8.85563 4.73473 4.00364 5 6.42958 
8.59228 8.77315 3.50243 5 2.43604 
10.7475 7.6054 0.365218 5 6.26357 
11.0348 5.2058 0.950741 5 7.23324 
11.9666 6.82452 2.15995 5 7.24134 
10.9667 8.94584 2.17666 5 6.51816 
10.5053 7.34215 3.70065 5 12.3167 
10.9383 5.00244 3.68577 5 5.88737 
13.1232 4.84664 0.327191 5 3.20777 
12.9077 6.96477 0.182634 5 7.68128 
15.165 7.5776 0.26659 5 5.21504 
14.0667 6.36092 1.94232 5 1.764 
13.2211 8.67466 1.66524 5 6.80321 
15.3695 5.15846 0.297156 5 0.897455 
13.2242 5.09705 3.69062 5 0.519468 
13.1727 7.70069 3.76028 5 4.66164 
15.3356 7.67951 3.71531 5 3.20467 
15.5831 5.28479 3.55889 1 2.48292 
18.0787 4.99348 0.518241 5 5.30728 
16.5916 6.40379 1.9919 5 1.68781 
15.5266 8.87443 1.89068 5 6.29234 
17.7858 7.29384 0.461389 5 6.13355 
18.9238 6.46299 2.16827 5 6.22457 
17.7995 8.65389 1.88919 5 2.28038 
18.0208 5.07506 3.83639 5 5.01736 
17.8389 7.7893 3.85751 5 3.67943 
2.15148 0.120041 5.25304 5 1.8878 
0.626629 1.84199 5.31915 5 6.77026 
3.90175 1.88335 5.15993 5 2.29758 
2.08711 3.7389 5.32285 5 0.789756 
19.9339 0.363148 6.89804 5 3.68068 
2.14462 1.77612 6.88464 5 2.11868 
2.07761 0.300837 8.54325 5 1.23679 
0.339416 1.80791 8.52126 5 5.19566 
3.9446 0.22832 7.10593 5 1.48762 
3.55959 2.02722 8.56415 1 2.30977 
0.725161 3.94514 7.0649 5 6.52617 
2.13655 3.67769 8.6966 5 1.41184 
3.50149 3.6236 6.86632 5 3.14053 
5.44478 0.126754 5.34082 5 0.881898 
6.68501 2.03759 5.09722 5 6.55417 
5.24944 4.04175 5.36476 5 4.71822 
5.50108 2.18215 7.13721 5 2.9277 
5.44213 0.441397 8.71645 5 0.578381 
6.89542 0.393974 6.95806 5 1.89371 
7.19176 2.35178 8.84182 5 3.29904 
5.46551 3.71998 8.67846 5 0.450573 
7.15391 3.46187 6.78535 5 3.16548 
8.58644 0.908704 5.34862 5 4.98092 
9.23529 3.29041 5.4193 5 8.44244 
8.64145 1.9799 7.34506 5 7.53206 
8.58624 0.312445 8.74894 5 4.50874 
9.19353 3.65708 8.47399 5 7.55332 
11.4962 1.43215 5.3522 5 4.24211 
12.0069 3.74788 5.24678 5 1.60184 
10.8751 2.88752 7.00792 5 10.0262 
10.5227 0.527015 6.8857 5 7.93897 
11.2846 1.53817 8.79584 5 6.43444 
11.7973 3.92882 8.8345 5 3.32588 
13.7595 1.16391 5.38604 5 3.69386 
14.2571 3.65018 5.35777 5 4.20574 
12.5623 0.113549 7.32612 5 6.88675 
13.1711 2.62331 7.03681 5 2.47051 
15.392 2.52767 7.36507 5 4.75571 
13.758 1.37337 8.5822 5 3.42811 
14.3148 3.82535 8.66099 5 1.18328 
14.7653 0.253324 7.15585 5 6.16711 
15.9103 1.502 5.46586 5 7.19683 
16.6756 3.64642 5.70427 5 5.36528 
18.279 0.981834 5.27977 5 8.83193 
18.8998 3.59566 5.22058 5 9.89817 
16.8867 9.83218 7.28632 5 7.16931 
16.3516 1.32636 8.80013 5 4.82258 
16.5773 4.28429 8.68894 5 8.27129 
18.1106 2.29796 6.90638 5 7.22943 
18.3553 0.769224 8.67488 5 11.2009 
18.598 3.65987 8.68691 5 7.29953 
0.519613 5.2981 5.33767 5 2.92781 
3.68611 5.61201 5.16646 5 2.12595 
2.00038 6.90479 5.48699 5 2.77703 
19.7176 8.67133 5.39507 5 6.93441 
3.82727 8.33673 5.42455 5 1.70497 
2.16357 5.5871 7.27394 5 3.25145 
0.480437 5.18557 8.97469 5 7.17162 
3.89341 5.47844 8.64151 5 1.34918 
19.9973 6.91527 7.36825 5 6.51641 
1.79265 8.68111 6.87186 5 2.24152 
1.97855 7.3161 8.55299 5 3.84086 
0.181294 8.88523 8.45396 5 7.24187 
3.91384 7.28858 7.18729 5 3.46781 
3.66134 8.56056 8.92451 5 3.54844 
7.05631 5.24913 5.26672 5 1.23321 
5.39767 7.0291 5.39829 5 1.11676 
7.15446 8.72216 5.18456 5 0.919761 
5.31819 5.47304 6.90719 5 1.13912 
7.39922 5.14623 8.65127 5 1.92622 
5.62372 8.5294 7.0912 5 1.44154 
5.74989 6.95144 8.60156 5 1.94768 
7.0938 6.94287 6.75782 5 0.95673 
7.33344 8.66825 8.53893 5 1.37081 
8.74747 6.93924 4.9287 5 4.96608 
8.70005 5.20784 6.63272 5 6.22208 
8.58609 8.89884 6.83627 5 1.59939 
8.74619 6.85179 8.32536 5 5.86419 
11.9553 6.37324 5.28651 5 3.5686 
10.5127 9.05175 5.11812 5 6.19212 
10.3922 7.39639 6.79325 5 12.3202 
11.0064 5.06207 6.74028 5 8.25531 
11.2622 6.15343 8.67893 5 6.3142 
10.6677 8.96834 8.31992 5 7.46005 
14.1376 6.41174 5.22366 5 4.37662 
12.7441 8.74652 5.66164 5 4.95596 
13.2516 5.02341 6.96785 1 1.98249 
13.1152 7.56286 7.37507 5 3.98895 
15.4867 7.51641 6.92357 5 4.00592 
14.2542 6.1761 8.6647 5 1.70789 
12.5521 8.82501 9.42173 5 11.0662 
15.5662 5.23536 7.10508 5 2.5287 
16.4872 6.09671 5.25503 5 3.79821 
14.5722 8.90815 5.34089 5 6.20752 
18.6585 6.6087 5.28855 5 11.8039 
16.7388 8.80034 5.37422 5 7.35668 
18.2032 4.91894 6.69392 5 5.90563 
16.3333 6.79592 8.82195 5 9.78185 
14.3889 8.7988 8.67849 5 6.37304 
17.6461 7.45152 6.70015 5 6.33248 
18.2169 5.99758 8.51801 5 4.32742 
17.9286 8.39768 8.53342 5 7.81353 
