ITEM: TIMESTEP
300
ITEM: NUMBER OF ATOMS
204
ITEM: BOX BOUNDS pp pp pp
0.0000000000000000e+00 2.0000000000000000e+01
0.0000000000000000e+00 1.0000000000000000e+01
0.0000000000000000e+00 1.0000000000000000e+01
ITEM: ATOMS x y z c_cna c_centro 
19.8869 0.347101 0.369121 5 6.22325 
1.86984 1.63138 0.224605 5 2.94853 
2.02117 0.245033 1.92014 5 1.41044 
0.498817 1.72916 2.11752 5 6.68378 
3.76261 0.122042 0.394794 5 1.34031 
3.61673 1.92985 1.95494 1 0.44565 
0.3544 3.34306 0.385022 5 3.76369 
2.1736 3.5377 1.85556 5 0.914494 
3.54164 3.54719 0.324194 1 0.933816 
0.064935 9.94259 3.88834 5 6.76978 
1.96727 2.06019 3.5971 5 1.01626 
3.65467 0.42997 3.53386 5 0.806953 
0.648482 3.74717 3.66873 5 5.32024 
3.70496 3.70632 3.47722 5 0.545839 
5.32025 1.95148 0.217135 1 0.483768 
5.47179 0.522552 1.988 1 1.46347 
7.00756 0.428415 0.247343 5 0.686889 
7.14911 2.17444 1.75648 5 0.998147 
5.41171 3.76754 1.88029 1 0.603669 
7.07094 3.72561 0.292224 5 1.22689 
5.4377 2.08204 3.82339 5 1.75983 
7.07974 0.457953 3.40089 5 1.51622 
6.91249 3.8239 3.70444 5 1.86965 
8.83317 2.25 9.84987 5 6.22675 
8.68818 0.49271 1.73956 5 6.01321 
8.96699 3.76347 1.72656 5 5.78957 
8.47448 2.15444 3.62664 5 6.29229 
10.8421 2.78413 0.650375 5 7.66995 
10.4938 0.217438 0.354808 5 9.01607 
11.6039 1.52189 2.26254 5 4.50057 
12.1204 3.75308 2.27888 5 5.28758 
10.5105 2.90545 3.69853 5 7.81378 
10.1874 0.63645 3.52095 5 7.12107 
12.6795 0.715152 0.377817 5 8.97731 
13.1123 2.90558 0.27122 5 2.06903 
15.4201 2.99882 0.36973 5 4.05994 
14.0185 1.45985 1.90976 5 0.677309 
14.281 4.07887 2.12329 5 1.49887 
14.9593 -0.00308882 0.302808 5 5.22423 
12.6516 0.0513546 3.78146 5 3.14811 
13.1587 2.67736 4.00901 5 2.97565 
15.4727 2.38808 3.65047 5 2.20026 
14.8665 0.206733 3.77159 5 5.42667 
17.1822 9.82757 0.181615 5 5.10648 
16.3722 1.26024 1.51814 5 7.6952 
16.6187 3.60344 2.09735 1 1.93766 
17.9643 2.25898 0.317719 5 4.05428 
18.6139 0.934398 2.06793 5 7.67943 
18.9824 3.51333 2.07372 5 9.88306 
17.1457 0.211225 3.46931 5 6.41386 
17.8259 2.33079 3.71749 5 4.49081 
2.08403 5.49336 0.34415 5 1.1899 
0.492367 5.33283 1.85844 5 5.15959 
3.67402 5.42522 1.7854 1 1.07354 
0.0277652 7.35666 0.335938 5 7.95284 
1.8606 8.74544 0.293439 5 0.848678 
2.06132 7.18679 1.94489 5 0.754761 
0.329214 8.69901 2.16086 5 4.38941 
3.61432 7.20181 0.199151 5 1.58959 
3.85889 8.72867 2.19933 5 2.40305 
2.14658 5.40268 3.50085 5 0.441336 
0.368439 6.99851 3.73389 5 5.17681 
1.9757 8.6906 3.66988 5 0.9872 
3.55325 6.93585 3.68525 5 1.53767 
5.30845 5.36061 0.29538 5 0.504306 
7.21311 5.3492 2.0425 5 1.0509 
5.461 8.47297 0.421328 5 1.78044 
5.3596 6.84895 2.03402 1 1.02372 
7.20949 6.75586 0.177914 5 1.85633 
6.94822 8.56452 2.02535 5 2.04501 
5.44402 5.39754 3.57405 1 0.64421 
5.45962 8.60394 3.76139 5 1.03333 
7.2373 7.03437 3.60533 1 2.11665 
8.83663 5.23029 0.114984 5 7.2672 
8.60389 8.5261 0.510883 5 5.19988 
9.13011 6.43146 2.18289 5 7.17779 
8.7172 5.13 4.06873 5 7.51519 
8.89389 8.63919 2.98615 5 9.20378 
10.5732 7.45333 0.609857 5 7.30627 
10.9489 5.01406 0.745158 5 7.53477 
11.9865 6.62586 2.14903 5 4.41049 
11.1599 9.02506 2.19298 5 7.0906 
10.8307 7.48079 3.88782 5 7.7713 
10.9407 5.2753 3.48544 5 6.1544 
13.209 5.14918 0.381854 5 1.56465 
13.0491 7.24946 0.267092 5 8.59003 
15.3636 7.64316 0.562516 5 5.36103 
14.3052 6.494 2.11904 5 1.49169 
13.6116 8.87722 1.8089 5 6.45766 
15.6762 5.23242 0.298743 5 2.33654 
13.164 5.2701 3.76612 5 0.582102 
13.1276 7.69305 3.64774 5 2.28531 
15.4818 7.35841 3.8296 5 5.74567 
15.4323 5.07129 3.83411 1 0.700735 
18.1559 4.87007 0.428391 5 6.09487 
16.7039 6.325 1.99584 5 1.82577 
16.0497 8.83827 2.23142 5 5.16083 
17.5649 7.33459 0.317798 5 3.91275 
18.8211 6.54599 2.04709 5 9.97634 
18.319 8.73716 1.72031 5 8.32127 
17.793 4.97964 3.47901 5 4.44595 
18.1004 7.7355 3.73135 5 7.23557 
1.8566 0.293023 5.28784 5 1.28539 
0.332186 1.98194 5.10925 5 2.68745 
3.64704 1.91065 5.17439 1 1.04395 
2.24981 3.66843 5.2441 5 0.912368 
0.388372 0.46124 6.82399 5 6.17715 
2.17689 2.09871 6.79583 5 1.52778 
2.0757 0.154616 8.58895 5 1.32501 
0.785596 1.9586 8.59449 5 7.42868 
3.57871 0.194507 6.81524 1 1.19067 
3.51885 1.94097 8.65948 5 1.03997 
0.348418 3.57457 6.90489 5 2.35427 
2.05248 3.61082 8.57135 5 0.743075 
3.71841 3.70078 6.92252 1 0.380642 
5.53841 0.316386 5.38268 5 1.09819 
7.04727 2.10289 5.41905 5 1.10909 
5.35015 3.66762 5.40084 1 0.598419 
5.27828 1.91117 7.06794 1 0.748536 
5.3124 0.158125 8.47676 1 1.56569 
7.10405 0.268217 7.06365 5 0.788826 
6.77243 2.17781 8.6926 5 4.23632 
5.29569 3.68553 8.61251 5 0.252434 
7.0322 3.65138 6.86348 5 1.75471 
8.46417 0.532743 5.30747 5 6.08011 
9.01062 3.4733 5.4478 5 6.54685 
8.64533 2.14931 7.35145 5 6.81356 
8.64437 0.248262 8.70974 5 2.10565 
9.47132 3.86626 8.46559 5 6.64468 
11.5382 1.35895 5.31966 5 3.6772 
11.8525 3.81931 5.23434 5 1.35649 
10.7242 2.73619 6.89655 5 8.0166 
10.3596 0.48253 6.97045 5 6.58266 
11.258 1.77112 8.70958 5 8.96929 
11.8251 4.14407 8.78442 5 4.06731 
14.0156 1.26267 5.57938 5 1.27357 
14.2913 3.83773 5.57659 5 1.39859 
12.5841 0.288666 7.48672 5 8.98848 
13.1014 2.52769 7.05055 5 2.23437 
15.6193 2.63069 6.9797 5 1.43446 
14.2187 1.53953 8.72675 5 1.82309 
14.2883 3.84925 8.60866 5 0.688389 
15.2826 0.139094 7.06792 5 5.30694 
16.4491 1.20293 5.39994 5 1.22387 
16.5945 3.78662 5.17588 5 1.25182 
18.5822 0.67895 5.19762 5 7.91088 
18.9883 3.81442 5.02312 5 8.74709 
17.5016 0.0258004 7.30324 5 7.36002 
16.5917 1.51722 8.79805 5 4.34028 
16.824 3.85342 8.63416 5 1.29062 
17.909 2.28574 6.78124 5 4.74402 
18.9212 1.08117 8.57871 5 6.7204 
19.0389 3.41455 8.686 5 7.04702 
0.660899 5.21521 5.33683 5 5.60401 
3.75384 5.51926 5.26016 1 0.782489 
2.00688 7.02179 5.2844 1 0.960028 
19.6297 8.4565 5.62579 5 8.03897 
3.68713 8.74234 5.15515 5 1.03568 
2.11774 5.35519 7.19347 1 1.39952 
0.524113 5.12302 8.89101 5 5.88818 
3.65842 5.31543 8.57143 1 0.465425 
0.341436 6.71209 7.03785 5 2.57497 
1.91536 8.7237 6.99904 5 1.27726 
2.00205 7.08788 8.76708 5 1.0874 
0.384345 8.58291 8.40955 5 6.38852 
3.6162 7.08803 7.00328 1 0.589977 
3.68092 8.59422 8.56352 5 0.310345 
6.86342 5.47453 5.31635 5 1.90479 
5.34706 7.11844 5.35711 1 0.575068 
7.18405 8.69433 5.29757 5 1.03863 
5.38387 5.40614 6.90517 1 0.375142 
7.19282 5.16846 8.59757 5 1.5478 
5.55328 8.53692 6.97236 1 1.36555 
5.29089 6.9372 8.61604 5 0.572899 
7.05973 7.10047 7.19219 5 1.93507 
6.93532 8.70279 8.76555 5 1.3313 
8.72885 6.93747 5.22038 5 5.34147 
8.56871 5.42523 6.81119 5 7.55968 
8.68273 8.69877 6.96278 5 0.575095 
8.85927 6.91306 8.61426 5 2.94949 
12.0566 6.50966 5.31137 5 4.57582 
10.0344 9.07189 5.08496 5 7.13122 
10.4546 7.25397 6.69448 5 8.10556 
10.8452 4.96278 6.64839 5 9.10182 
11.2125 6.21182 8.82349 5 6.64583 
10.3751 8.60611 8.61316 5 6.91184 
14.3365 6.41213 5.60526 5 1.71224 
12.0468 8.86184 5.67878 5 6.37217 
12.9602 5.07525 6.96503 5 1.93672 
12.6636 7.64658 7.51805 5 6.56291 
15.5706 7.82122 6.79273 5 6.06392 
14.1704 6.18769 8.52164 5 4.77927 
12.2349 8.88196 9.28948 5 10.7571 
15.6569 5.13074 7.08524 5 1.81076 
16.6967 6.33947 5.51823 5 1.59468 
14.3066 8.87512 5.39216 5 2.68651 
18.8481 6.12445 5.28277 5 7.65716 
16.8581 8.84599 5.36687 5 4.51533 
17.9813 4.7433 6.98885 5 3.4854 
16.3589 6.58373 8.54992 5 7.9275 
14.5741 8.72592 8.6782 5 8.32237 
17.8105 7.53972 7.02881 5 3.45358 
18.5905 6.09974 8.63129 5 4.96771 
18.2894 8.63104 8.78158 5 9.22413 
