ITEM: TIMESTEP
0
ITEM: NUMBER OF ATOMS
204
ITEM: BOX BOUNDS pp pp pp
0.0000000000000000e+00 2.0000000000000000e+01
0.0000000000000000e+00 1.0000000000000000e+01
0.0000000000000000e+00 1.0000000000000000e+01
ITEM: ATOMS x y z c_cna c_centro 
0 0 0 5 7.92837 
1.8 1.8 0 5 2.56 
1.8 0 1.8 5 2.56 
0 1.8 1.8 5 8.80658 
3.6 0 0 5 5.12 
3.6 1.8 1.8 5 0 
0 3.6 0 5 5.18774 
1.8 3.6 1.8 5 0 
3.6 3.6 0 5 2.56 
0 0 3.6 5 5.55141 
1.8 1.8 3.6 5 0 
3.6 0 3.6 5 2.56 
0 3.6 3.6 5 2.62774 
3.6 3.6 3.6 1 0 
5.4 1.8 0 5 2.56 
5.4 0 1.8 5 2.56 
7.2 0 0 5 5.12 
7.2 1.8 1.8 5 0 
5.4 3.6 1.8 5 0 
7.2 3.6 0 5 2.56 
5.4 1.8 3.6 5 0 
7.2 0 3.6 5 2.56 
7.2 3.6 3.6 1 0 
9 1.8 0 5 6.43935 
9 0 1.8 5 3.47927 
9 3.6 1.8 5 6.43372 
9 1.8 3.6 5 6.75935 
10.1823 2.54558 0 5 7.34398 
10.1823 0 0 5 8.0172 
11.4551 1.27279 1.8 5 1.66143 
11.4551 3.81838 1.8 5 0.0558704 
10.1823 2.54558 3.6 5 5.32192 
10.1823 0 3.6 5 5.87491 
12.7279 0 0 5 2.72624 
12.7279 2.54558 0 5 2.56 
15.2735 2.54558 0 5 2.56 
14.0007 1.27279 1.8 5 0.033247 
14.0007 3.81838 1.8 5 1.50672e-28 
15.2735 0 0 5 2.72624 
12.7279 0 3.6 1 0.166235 
12.7279 2.54558 3.6 1 3.78653e-29 
15.2735 2.54558 3.6 1 6.62643e-29 
15.2735 0 3.6 1 0.166235 
17.8191 0 0 5 2.85922 
16.5463 1.27279 1.8 5 0.033247 
16.5463 3.81838 1.8 5 6.31089e-29 
17.8191 2.54558 0 5 4.30262 
19.0919 1.27279 1.8 5 7.60224 
19.0919 3.81838 1.8 5 5.42019 
17.8191 0 3.6 5 0.299223 
17.8191 2.54558 3.6 5 1.24478 
1.8 5.4 0 5 2.56 
0 5.4 1.8 5 6.25824 
3.6 5.4 1.8 5 0 
0 7.2 0 5 7.89587 
1.8 9 0 5 5.12 
1.8 7.2 1.8 5 0 
0 9 1.8 5 9.35237 
3.6 7.2 0 5 2.56 
3.6 9 1.8 5 2.56 
1.8 5.4 3.6 1 0 
0 7.2 3.6 5 5.57559 
1.8 9 3.6 5 2.56 
3.6 7.2 3.6 5 0 
5.4 5.4 0 5 2.56 
7.2 5.4 1.8 5 0 
5.4 9 0 5 5.12 
5.4 7.2 1.8 5 0 
7.2 7.2 0 5 2.56 
7.2 9 1.8 5 2.56 
5.4 5.4 3.6 1 0 
5.4 9 3.6 5 2.56 
7.2 7.2 3.6 5 0 
9 5.4 0 5 7.45572 
9 9 0 5 7.17234 
9 7.2 1.8 5 5.7593 
9 5.4 3.6 5 6.02907 
9 9 3.6 5 6.71452 
10.1823 7.63675 0 5 7.09522 
10.1823 5.09117 0 5 6.63011 
11.4551 6.36396 1.8 5 0.707143 
11.4551 8.90955 1.8 5 1.36351 
10.1823 7.63675 3.6 5 6.03881 
10.1823 5.09117 3.6 5 3.47985 
12.7279 5.09117 0 5 2.56 
12.7279 7.63675 0 5 2.59325 
15.2735 7.63675 0 5 2.59325 
14.0007 6.36396 1.8 5 6.94198e-29 
14.0007 8.90955 1.8 5 0.166235 
15.2735 5.09117 0 5 2.56 
12.7279 5.09117 3.6 1 7.25752e-29 
12.7279 7.63675 3.6 1 0.033247 
15.2735 7.63675 3.6 1 0.033247 
15.2735 5.09117 3.6 1 1.26218e-29 
17.8191 5.09117 0 5 3.78836 
16.5463 6.36396 1.8 5 1.26218e-29 
16.5463 8.90955 1.8 5 0.166235 
17.8191 7.63675 0 5 2.91699 
19.0919 6.36396 1.8 5 7.33019 
19.0919 8.90955 1.8 5 4.08772 
17.8191 5.09117 3.6 5 2.35657 
17.8191 7.63675 3.6 5 0.356988 
1.8 0 5.4 5 2.56 
0 1.8 5.4 5 5.3952 
3.6 1.8 5.4 5 0 
1.8 3.6 5.4 5 0 
0 0 7.2 5 5.55141 
1.8 1.8 7.2 5 0 
1.8 0 9 5 5.12 
0 1.8 9 5 6.77211 
3.6 0 7.2 5 2.56 
3.6 1.8 9 5 2.56 
0 3.6 7.2 5 2.62774 
1.8 3.6 9 5 2.56 
3.6 3.6 7.2 5 0 
5.4 0 5.4 5 2.56 
7.2 1.8 5.4 5 0 
5.4 3.6 5.4 1 0 
5.4 1.8 7.2 5 0 
5.4 0 9 5 5.12 
7.2 0 7.2 5 2.56 
7.2 1.8 9 5 2.56 
5.4 3.6 9 5 2.56 
7.2 3.6 7.2 5 0 
9 0 5.4 5 3.47927 
9 3.6 5.4 5 6.43372 
9 1.8 7.2 5 10.2296 
9 0 9 5 6.03927 
9 3.6 9 5 8.30447 
11.4551 1.27279 5.4 5 1.66143 
11.4551 3.81838 5.4 1 0.0558704 
10.1823 2.54558 7.2 5 7.52909 
10.1823 0 7.2 5 7.39933 
11.4551 1.27279 9 5 3.87938 
11.4551 3.81838 9 5 2.61587 
14.0007 1.27279 5.4 1 0.033247 
14.0007 3.81838 5.4 1 1.50672e-28 
12.7279 0 7.2 5 0.166235 
12.7279 2.54558 7.2 5 3.78653e-29 
15.2735 2.54558 7.2 5 6.62643e-29 
14.0007 1.27279 9 5 2.59325 
14.0007 3.81838 9 5 2.56 
15.2735 0 7.2 5 0.166235 
16.5463 1.27279 5.4 1 0.033247 
16.5463 3.81838 5.4 1 6.31089e-29 
19.0919 1.27279 5.4 5 5.80398 
19.0919 3.81838 5.4 5 5.42019 
17.8191 0 7.2 5 0.299223 
16.5463 1.27279 9 5 2.59325 
16.5463 3.81838 9 5 2.56 
17.8191 2.54558 7.2 5 1.24478 
19.0919 1.27279 9 5 5.99317 
19.0919 3.81838 9 5 5.84788 
0 5.4 5.4 5 2.8185 
3.6 5.4 5.4 1 0 
1.8 7.2 5.4 5 0 
0 9 5.4 5 8.20393 
3.6 9 5.4 5 2.56 
1.8 5.4 7.2 5 0 
0 5.4 9 5 6.37039 
3.6 5.4 9 5 2.56 
0 7.2 7.2 5 5.57559 
1.8 9 7.2 5 2.56 
1.8 7.2 9 5 2.56 
0 9 9 5 8.26385 
3.6 7.2 7.2 5 0 
3.6 9 9 5 5.12 
7.2 5.4 5.4 1 0 
5.4 7.2 5.4 5 0 
7.2 9 5.4 5 2.56 
5.4 5.4 7.2 5 0 
7.2 5.4 9 5 2.56 
5.4 9 7.2 5 2.56 
5.4 7.2 9 5 2.56 
7.2 7.2 7.2 5 0 
7.2 9 9 5 5.12 
9 7.2 5.4 5 5.7593 
9 5.4 7.2 5 8.37112 
9 9 7.2 5 8.27714 
9 7.2 9 5 6.53982 
11.4551 6.36396 5.4 5 0.707143 
11.4551 8.90955 5.4 5 1.36351 
10.1823 7.63675 7.2 5 8.24598 
10.1823 5.09117 7.2 5 6.95011 
11.4551 6.36396 9 5 3.26714 
11.4551 8.90955 9 5 3.7426 
14.0007 6.36396 5.4 1 6.94198e-29 
14.0007 8.90955 5.4 1 0.166235 
12.7279 5.09117 7.2 5 7.25752e-29 
12.7279 7.63675 7.2 5 0.033247 
15.2735 7.63675 7.2 5 0.033247 
14.0007 6.36396 9 5 2.56 
14.0007 8.90955 9 5 2.72624 
15.2735 5.09117 7.2 5 1.26218e-29 
16.5463 6.36396 5.4 1 1.26218e-29 
16.5463 8.90955 5.4 1 0.166235 
19.0919 6.36396 5.4 5 5.53193 
19.0919 8.90955 5.4 5 4.08772 
17.8191 5.09117 7.2 5 2.35657 
16.5463 6.36396 9 5 2.56 
16.5463 8.90955 9 5 2.72624 
17.8191 7.63675 7.2 5 0.356988 
19.0919 6.36396 9 5 6.51234 
19.0919 8.90955 9 5 6.21024 
