Nickle Copper Simulation

3430 	atoms
0 	bonds
0 	angles
0 	dihedrals
0 	impropers

2	atom types
0	bond types
0	angle types
0	dihedral types
0	improper types

-0.02	41.42	xlo xhi
-0.02	41.42	ylo yhi
-0.02	41.42	zlo zhi

Atoms

	1	2	0.0002	-0.0013	0.0018
	2	2	0.0002	-0.0037	4.5946
	3	2	0.0092	-0.0008	9.1953
	4	2	-0.0026	0.0021	13.7915
	5	2	-0.0054	-0.0021	18.3987
	6	2	0.0006	0.0048	23.0033
	7	2	0.0058	0.0082	27.6062
	8	2	0.0023	-0.0042	32.1989
	9	2	0.0029	-0.0024	36.8066
	10	2	-0.0004	-0.0067	41.3952
	11	2	-0.006	4.5981	0.0018
	12	2	-0.0011	4.606	4.595
	13	2	0.0029	4.5968	9.1977
	14	2	-0.0079	4.5964	13.7961
	15	2	0.0012	4.5973	18.4047
	16	2	-0.006	4.5954	23.0044
	17	2	0.0065	4.6048	27.6066
	18	2	0.0079	4.6098	32.1931
	19	2	0.001	4.5956	36.7924
	20	2	-0.0069	4.5945	41.3989
	21	2	0.0093	9.2009	0.008
	22	2	-0.004	9.1901	4.5985
	23	2	0.0004	9.1993	9.2003
	24	2	0.0069	9.208	13.8012
	25	2	0.0026	9.2055	18.4087
	26	2	0.0035	9.196	22.9985
	27	2	-0.0063	9.2049	27.6071
	28	2	0.0086	9.2061	32.1991
	29	2	-0.0082	9.1965	36.7913
	30	2	0.0048	9.1958	41.4031
	31	2	-0.0067	13.8013	0.004
	32	2	0.0026	13.8059	4.6052
	33	2	-0.0007	13.8074	9.1949
	34	2	-0.0014	13.8099	13.8021
	35	2	0.0074	13.8076	18.3972
	36	2	-0.0022	13.8009	22.9982
	37	2	0.0021	13.7908	27.6006
	38	2	0.0011	13.7945	32.1938
	39	2	0.0075	13.8024	36.7966
	40	2	-0.0066	13.7941	41.405
	41	2	-0.0068	18.3955	0.0001
	42	2	0.0078	18.4011	4.6031
	43	2	-0.0043	18.3991	9.1934
	44	2	-0.0009	18.4006	13.8045
	45	2	0.0036	18.4056	18.3981
	46	2	0.0041	18.3911	22.9962
	47	2	-0.0025	18.4099	27.5989
	48	2	0.0075	18.3934	32.1985
	49	2	-0.0038	18.3966	36.7921
	50	2	0.008	18.3911	41.4088
	51	2	-0.0086	22.9949	0.006
	52	2	0.0056	22.9905	4.5963
	53	2	-0.0058	22.9934	9.202
	54	2	-0.0041	22.9984	13.8024
	55	2	-0.0015	23.0051	18.3973
	56	2	0.0074	23.0062	22.9987
	57	2	0.0022	22.9974	27.6073
	58	2	0.0041	23.0048	32.2044
	59	2	0.0078	23.0001	36.8048
	60	2	0.0006	23.0003	41.3913
	61	2	-0.0026	27.5988	-0.0004
	62	2	-0.0062	27.6048	4.6029
	63	2	0.0035	27.6002	9.2057
	64	2	-0.0093	27.594	13.8037
	65	2	-0.0025	27.6076	18.408
	66	2	-0.003	27.6034	23.0045
	67	2	0.0048	27.6032	27.5994
	68	2	0.0067	27.6036	32.2088
	69	2	0.0083	27.596	36.7986
	70	2	-0.0081	27.6028	41.3938
	71	2	0.0069	32.2099	-0.0059
	72	2	-0.004	32.1995	4.6052
	73	2	-0.0043	32.2003	9.2026
	74	2	0.0065	32.2049	13.7931
	75	2	-0.0008	32.199	18.4027
	76	2	-0.0051	32.1984	23.0041
	77	2	-0.0038	32.2011	27.6082
	78	2	0.0054	32.1906	32.2088
	79	2	0.006	32.1962	36.7918
	80	2	0.0063	32.2063	41.4015
	81	2	0.0033	36.8014	-0.006
	82	2	-0.0076	36.7989	4.6078
	83	2	0.0073	36.8016	9.1954
	84	2	0.0032	36.794	13.8
	85	2	0.0085	36.8054	18.4064
	86	2	0.0018	36.7939	22.9908
	87	2	-0.0099	36.8001	27.5982
	88	2	-0.0089	36.7918	32.2025
	89	2	-0.0006	36.8055	36.8079
	90	2	-0.0021	36.8073	41.3979
	91	2	-0.0003	41.3943	-0.0044
	92	2	0.0089	41.3935	4.6064
	93	2	-0.0088	41.3959	9.1996
	94	2	0.0037	41.3975	13.7961
	95	2	-0.0046	41.408	18.4026
	96	2	0.0049	41.3991	22.9989
	97	2	0.0096	41.3939	27.593
	98	2	0.0057	41.4029	32.2054
	99	2	0.0009	41.4093	36.7913
	100	2	0.008	41.4012	41.3946
	101	2	4.5922	-0.0072	0.0012
	102	2	4.5981	0.0096	4.5931
	103	2	4.5999	0.0079	9.2058
	104	2	4.5992	0.001	13.7917
	105	2	4.6078	-0.0068	18.4016
	106	2	4.5999	-0.0006	22.9907
	107	2	4.6001	0.0022	27.5959
	108	2	4.6054	-0.0048	32.201
	109	2	4.5992	-0.0058	36.8013
	110	2	4.5982	0.0066	41.3966
	111	2	4.5949	4.6029	0.0089
	112	2	4.6095	4.5923	4.5987
	113	2	4.5969	4.5989	9.2099
	114	2	4.6064	4.6062	13.8058
	115	2	4.5969	4.6084	18.3961
	116	2	4.605	4.6007	23.0069
	117	2	4.6039	4.6097	27.6097
	118	2	4.6059	4.6056	32.197
	119	2	4.5925	4.5979	36.8047
	120	2	4.5916	4.6003	41.3969
	121	2	4.5939	9.2063	0.0023
	122	2	4.6015	9.2043	4.5957
	123	2	4.5927	9.2084	9.2017
	124	2	4.594	9.2009	13.81
	125	2	4.5974	9.1933	18.4079
	126	2	4.5977	9.1982	22.9921
	127	2	4.6058	9.1906	27.5901
	128	2	4.6016	9.2063	32.1983
	129	2	4.5984	9.2082	36.7942
	130	2	4.6028	9.1981	41.4099
	131	2	4.5968	13.7985	-0.0028
	132	2	4.5963	13.8049	4.5943
	133	2	4.6012	13.7911	9.195
	134	2	4.6039	13.8016	13.807
	135	2	4.5931	13.7994	18.4099
	136	2	4.5946	13.8078	22.9922
	137	2	4.5963	13.7909	27.5986
	138	2	4.5994	13.7957	32.2056
	139	2	4.6076	13.801	36.7973
	140	2	4.5965	13.7961	41.4029
	141	2	4.5904	18.3906	0.0083
	142	2	4.5947	18.41	4.6079
	143	2	4.5963	18.3911	9.1977
	144	2	4.5977	18.4021	13.7923
	145	2	4.5905	18.4031	18.4082
	146	2	4.5937	18.4026	23.0053
	147	2	4.5952	18.394	27.6011
	148	2	4.6002	18.4008	32.2057
	149	2	4.5994	18.398	36.7908
	150	2	4.5987	18.3905	41.3902
	151	2	4.6069	22.9912	-0.0077
	152	2	4.6092	22.9954	4.6
	153	2	4.6084	23.0097	9.2036
	154	2	4.6042	22.9935	13.8035
	155	2	4.5904	22.9991	18.404
	156	2	4.5911	22.9957	22.9976
	157	2	4.5941	23.0087	27.6002
	158	2	4.6028	23.0097	32.202
	159	2	4.5995	23.0017	36.7971
	160	2	4.6019	22.9906	41.4059
	161	2	4.5933	27.6092	-0.0008
	162	2	4.6071	27.6087	4.6057
	163	2	4.6033	27.5961	9.1977
	164	2	4.6003	27.5916	13.7909
	165	2	4.5992	27.5973	18.39
	166	2	4.6083	27.6079	23.0036
	167	2	4.5958	27.6086	27.5917
	168	2	4.6056	27.5919	32.1958
	169	2	4.6002	27.6075	36.7905
	170	2	4.6019	27.6058	41.3914
	171	2	4.5964	32.197	-0.0023
	172	2	4.6017	32.197	4.6069
	173	2	4.6041	32.2077	9.197
	174	2	4.5907	32.1945	13.8096
	175	2	4.6091	32.2036	18.4041
	176	2	4.6078	32.1903	22.9947
	177	2	4.6098	32.2026	27.5939
	178	2	4.6041	32.1979	32.195
	179	2	4.6087	32.1948	36.7916
	180	2	4.6037	32.2019	41.3934
	181	2	4.6077	36.8087	0.0087
	182	2	4.5968	36.7943	4.5954
	183	2	4.6066	36.8075	9.1919
	184	2	4.5997	36.7986	13.7981
	185	2	4.6061	36.8057	18.4082
	186	2	4.606	36.7925	23.0074
	187	2	4.6037	36.803	27.5999
	188	2	4.6037	36.8045	32.1978
	189	2	4.593	36.7961	36.8008
	190	2	4.6049	36.8021	41.4095
	191	2	4.597	41.3967	0.0051
	192	2	4.5966	41.4008	4.6046
	193	2	4.6052	41.3909	9.2022
	194	2	4.5913	41.4039	13.807
	195	2	4.6084	41.3905	18.3961
	196	2	4.5999	41.3921	22.9902
	197	2	4.6075	41.4009	27.6033
	198	2	4.6089	41.3987	32.1966
	199	2	4.5938	41.4065	36.8021
	200	2	4.5936	41.4015	41.4005
	201	2	9.2004	0.0063	-0.0022
	202	2	9.1975	0.0087	4.6078
	203	2	9.1903	-0.005	9.1917
	204	2	9.1915	-0.0075	13.7984
	205	2	9.2059	-0.0089	18.4026
	206	2	9.1961	0.004	23.0092
	207	2	9.2039	-0.0023	27.6056
	208	2	9.1991	0.006	32.2077
	209	2	9.1936	-0.0042	36.7928
	210	2	9.2047	0.0046	41.3928
	211	2	9.1957	4.5965	-0.003
	212	2	9.1991	4.596	4.6087
	213	2	9.2025	4.5984	9.1968
	214	2	9.2055	4.6097	13.8056
	215	2	9.1921	4.6064	18.393
	216	2	9.1998	4.6045	22.9986
	217	2	9.1937	4.6065	27.6037
	218	2	9.2073	4.5953	32.2063
	219	2	9.2033	4.6079	36.7921
	220	2	9.1911	4.5999	41.4041
	221	2	9.1957	9.2058	0.0058
	222	2	9.2019	9.2018	4.5965
	223	2	9.1908	9.2001	9.2098
	224	2	9.2055	9.19	13.8066
	225	2	9.1913	9.1913	18.4009
	226	2	9.2	9.203	23.0073
	227	2	9.1965	9.191	27.592
	228	2	9.2035	9.196	32.1952
	229	2	9.1951	9.1926	36.8013
	230	2	9.192	9.2085	41.3917
	231	2	9.1996	13.7905	0.0086
	232	2	9.1958	13.7985	4.5954
	233	2	9.2004	13.8002	9.2066
	234	2	9.1966	13.8037	13.7928
	235	2	9.2031	13.7938	18.4045
	236	2	9.1944	13.7937	23.0065
	237	2	9.1992	13.8029	27.5979
	238	2	9.2017	13.7997	32.1914
	239	2	9.2044	13.8041	36.806
	240	2	9.1903	13.7959	41.397
	241	2	9.2048	18.3953	0.0034
	242	2	9.2046	18.3936	4.6006
	243	2	9.1959	18.3948	9.2033
	244	2	9.1927	18.4032	13.8066
	245	2	9.1915	18.3941	18.4086
	246	2	9.2086	18.3948	22.999
	247	2	9.2039	18.399	27.5912
	248	2	9.1958	18.4014	32.1954
	249	2	9.1956	18.4086	36.7975
	250	2	9.2051	18.3956	41.4091
	251	2	9.1985	23.0037	0.0039
	252	2	9.2043	22.9985	4.5907
	253	2	9.2074	23.0018	9.195
	254	2	9.2099	22.9995	13.7944
	255	2	9.1924	22.991	18.3999
	256	2	9.1912	23.0001	22.9932
	257	2	9.2064	23.0	27.6067
	258	2	9.1979	22.9912	32.2025
	259	2	9.1944	22.9918	36.8046
	260	2	9.1967	22.9999	41.3906
	261	2	9.2094	27.5922	0.0094
	262	2	9.2076	27.6088	4.6082
	263	2	9.2091	27.5913	9.191
	264	2	9.1949	27.6083	13.7929
	265	2	9.1934	27.5957	18.4048
	266	2	9.2097	27.5917	23.0089
	267	2	9.2042	27.597	27.6097
	268	2	9.1978	27.6095	32.193
	269	2	9.202	27.6044	36.7963
	270	2	9.1951	27.5958	41.4038
	271	2	9.197	32.2083	-0.0073
	272	2	9.1972	32.2012	4.6007
	273	2	9.2028	32.2001	9.2006
	274	2	9.2077	32.2007	13.8097
	275	2	9.2065	32.1993	18.4049
	276	2	9.1964	32.1959	22.9922
	277	2	9.2053	32.2	27.6015
	278	2	9.2006	32.1968	32.2006
	279	2	9.1948	32.2096	36.7909
	280	2	9.1979	32.2074	41.4071
	281	2	9.2057	36.799	-0.0017
	282	2	9.2011	36.8	4.5975
	283	2	9.1902	36.8026	9.1922
	284	2	9.2089	36.8071	13.8077
	285	2	9.2098	36.8063	18.4071
	286	2	9.1981	36.7921	22.9972
	287	2	9.1946	36.803	27.6005
	288	2	9.2042	36.7993	32.1933
	289	2	9.2069	36.8038	36.7985
	290	2	9.1981	36.7956	41.4079
	291	2	9.1904	41.396	-0.0023
	292	2	9.1921	41.3921	4.5931
	293	2	9.2008	41.3988	9.193
	294	2	9.1941	41.407	13.8012
	295	2	9.1999	41.3904	18.409
	296	2	9.2078	41.3922	23.0024
	297	2	9.2046	41.402	27.6017
	298	2	9.2032	41.4042	32.206
	299	2	9.1921	41.3992	36.7962
	300	2	9.2066	41.3998	41.395
	301	2	13.8007	-0.0045	0.0045
	302	2	13.7969	-0.0018	4.5904
	303	2	13.7969	0.0032	9.1914
	304	2	13.7967	-0.008	13.7978
	305	2	13.7985	0.0047	18.3953
	306	2	13.8007	-0.0068	22.9987
	307	2	13.7923	-0.0089	27.6024
	308	2	13.8091	-0.0027	32.198
	309	2	13.7959	-0.0016	36.796
	310	2	13.8095	-0.0034	41.4026
	311	2	13.8029	4.5999	-0.0082
	312	2	13.7977	4.5975	4.5963
	313	2	13.8067	4.5996	9.2031
	314	2	13.8073	4.592	13.795
	315	2	13.7921	4.5965	18.4076
	316	2	13.8053	4.5906	23.0023
	317	2	13.7977	4.6045	27.5907
	318	2	13.7973	4.5909	32.2011
	319	2	13.7968	4.6093	36.8067
	320	2	13.7902	4.5956	41.3979
	321	2	13.7996	9.1923	-0.0006
	322	2	13.7936	9.196	4.5922
	323	2	13.807	9.1937	9.2058
	324	2	13.81	9.2033	13.8045
	325	2	13.7975	9.1998	18.4075
	326	2	13.8039	9.197	23.0038
	327	2	13.8061	9.1932	27.5949
	328	2	13.804	9.207	32.2047
	329	2	13.8017	9.209	36.7941
	330	2	13.808	9.206	41.4029
	331	2	13.7963	13.8097	0.0021
	332	2	13.8077	13.7946	4.6086
	333	2	13.8042	13.8024	9.2084
	334	2	13.7908	13.795	13.805
	335	2	13.7989	13.7908	18.4094
	336	2	13.8047	13.8028	22.9945
	337	2	13.8081	13.8087	27.6085
	338	2	13.8011	13.8096	32.1923
	339	2	13.7981	13.8046	36.8061
	340	2	13.8049	13.8016	41.4017
	341	2	13.7969	18.4026	0.0095
	342	2	13.8032	18.3968	4.597
	343	2	13.7942	18.3929	9.2055
	344	2	13.8	18.3927	13.8003
	345	2	13.8013	18.4049	18.4039
	346	2	13.7944	18.3995	22.9922
	347	2	13.7947	18.3947	27.6063
	348	2	13.8046	18.4098	32.209
	349	2	13.7937	18.3965	36.7959
	350	2	13.7952	18.4036	41.3927
	351	2	13.7973	23.009	-0.0086
	352	2	13.7913	22.9928	4.5936
	353	2	13.8001	23.0042	9.2091
	354	2	13.805	22.9904	13.8055
	355	2	13.8016	23.0098	18.4055
	356	2	13.7979	23.0016	22.9928
	357	2	13.8037	22.9997	27.5909
	358	2	13.7952	23.0048	32.1929
	359	2	13.799	23.0058	36.7925
	360	2	13.8042	23.0095	41.3939
	361	2	13.8087	27.5962	-0.0024
	362	2	13.7977	27.6021	4.6034
	363	2	13.7902	27.5944	9.1965
	364	2	13.7991	27.592	13.7949
	365	2	13.8089	27.5966	18.4004
	366	2	13.8036	27.6089	22.9921
	367	2	13.7975	27.5968	27.5953
	368	2	13.7914	27.5911	32.1951
	369	2	13.8073	27.5956	36.8089
	370	2	13.7923	27.6041	41.4028
	371	2	13.8091	32.2004	-0.0018
	372	2	13.8036	32.2062	4.5977
	373	2	13.8028	32.2065	9.1957
	374	2	13.7995	32.2054	13.7905
	375	2	13.7954	32.2068	18.4075
	376	2	13.7998	32.2009	23.0031
	377	2	13.7994	32.2027	27.5949
	378	2	13.8014	32.1921	32.1975
	379	2	13.8023	32.2089	36.809
	380	2	13.8084	32.2023	41.3972
	381	2	13.7946	36.7994	-0.0083
	382	2	13.7938	36.7908	4.5996
	383	2	13.7905	36.7924	9.2046
	384	2	13.7927	36.7941	13.8076
	385	2	13.7947	36.8064	18.3995
	386	2	13.8005	36.7963	23.0037
	387	2	13.7958	36.8036	27.6065
	388	2	13.7969	36.8065	32.191
	389	2	13.8089	36.8092	36.801
	390	2	13.7921	36.7984	41.4044
	391	2	13.8008	41.4072	-0.0068
	392	2	13.7961	41.3994	4.6044
	393	2	13.8082	41.3989	9.1951
	394	2	13.8078	41.4044	13.7921
	395	2	13.8049	41.4072	18.3918
	396	2	13.7991	41.4074	23.0043
	397	2	13.7945	41.4048	27.5948
	398	2	13.7935	41.4057	32.2088
	399	2	13.799	41.3993	36.8031
	400	2	13.7963	41.4095	41.4087
	401	2	18.3973	0.0042	0.004
	402	2	18.4082	-0.0061	4.6078
	403	2	18.3978	-0.0033	9.2098
	404	2	18.3914	0.009	13.8059
	405	2	18.409	0.0028	18.3911
	406	2	18.394	0.0055	23.0048
	407	2	18.4054	0.0054	27.6088
	408	2	18.3977	0.0089	32.2052
	409	2	18.4089	0.0082	36.8076
	410	2	18.3943	-0.0074	41.4016
	411	2	18.4053	4.5913	0.0021
	412	2	18.3954	4.5964	4.5971
	413	2	18.404	4.5981	9.2084
	414	2	18.3942	4.6097	13.8087
	415	2	18.3988	4.5932	18.407
	416	2	18.3909	4.5952	23.0094
	417	2	18.4069	4.6075	27.6056
	418	2	18.3985	4.6052	32.1962
	419	2	18.4007	4.5981	36.8038
	420	2	18.4038	4.6027	41.4077
	421	2	18.3903	9.2041	-0.0073
	422	2	18.396	9.1917	4.6066
	423	2	18.4091	9.2079	9.2015
	424	2	18.402	9.1999	13.7961
	425	2	18.4008	9.2081	18.4039
	426	2	18.391	9.2091	22.9955
	427	2	18.4099	9.2066	27.5962
	428	2	18.406	9.1965	32.1991
	429	2	18.4085	9.1947	36.796
	430	2	18.4037	9.1985	41.3923
	431	2	18.3936	13.8041	0.0025
	432	2	18.403	13.8043	4.6059
	433	2	18.403	13.7946	9.1953
	434	2	18.3934	13.8083	13.8072
	435	2	18.3938	13.8004	18.3961
	436	2	18.3955	13.792	22.9921
	437	2	18.3956	13.7918	27.5975
	438	2	18.3932	13.7904	32.1999
	439	2	18.3944	13.7939	36.8053
	440	2	18.3979	13.7954	41.4083
	441	2	18.4049	18.4094	0.0022
	442	2	18.4067	18.3944	4.5994
	443	2	18.4043	18.4033	9.2025
	444	2	18.3922	18.3953	13.7962
	445	2	18.4067	18.4081	18.4098
	446	2	18.39	18.3985	23.004
	447	2	18.4091	18.3932	27.605
	448	2	18.4032	18.3968	32.1965
	449	2	18.4084	18.4015	36.7947
	450	2	18.3904	18.4066	41.3991
	451	2	18.4006	22.9916	0.0011
	452	2	18.3972	22.9997	4.604
	453	2	18.4097	22.9981	9.2088
	454	2	18.4051	23.0024	13.8009
	455	2	18.4063	22.9951	18.3964
	456	2	18.3964	23.01	23.0047
	457	2	18.3989	23.0029	27.5916
	458	2	18.4066	23.0015	32.2064
	459	2	18.3912	23.0016	36.8026
	460	2	18.4068	22.9936	41.3995
	461	2	18.3908	27.6009	0.0078
	462	2	18.4055	27.5963	4.5966
	463	2	18.4046	27.592	9.1908
	464	2	18.3976	27.6073	13.7996
	465	2	18.4038	27.5996	18.3963
	466	2	18.3918	27.5946	23.0089
	467	2	18.398	27.5977	27.5956
	468	2	18.3932	27.6041	32.2076
	469	2	18.3919	27.6062	36.7973
	470	2	18.401	27.5911	41.4081
	471	2	18.3905	32.1938	0.0033
	472	2	18.39	32.2065	4.5919
	473	2	18.3989	32.1919	9.1918
	474	2	18.4047	32.2073	13.7991
	475	2	18.408	32.1923	18.4043
	476	2	18.409	32.2074	22.9954
	477	2	18.4085	32.2021	27.6001
	478	2	18.3901	32.2089	32.1931
	479	2	18.399	32.1911	36.8031
	480	2	18.4009	32.1938	41.393
	481	2	18.3962	36.8028	-0.0033
	482	2	18.392	36.8098	4.5912
	483	2	18.3968	36.8036	9.1964
	484	2	18.3924	36.791	13.8002
	485	2	18.3998	36.8019	18.4099
	486	2	18.3912	36.7965	22.9954
	487	2	18.3933	36.7966	27.5984
	488	2	18.3926	36.8056	32.1964
	489	2	18.3945	36.7952	36.7981
	490	2	18.4061	36.7919	41.3906
	491	2	18.3913	41.3932	-0.0041
	492	2	18.4034	41.3944	4.6051
	493	2	18.3922	41.409	9.2042
	494	2	18.396	41.4032	13.7952
	495	2	18.4094	41.4095	18.4017
	496	2	18.4015	41.4091	22.9989
	497	2	18.3976	41.4079	27.6017
	498	2	18.4049	41.3954	32.2065
	499	2	18.4002	41.3957	36.7949
	500	2	18.3952	41.3924	41.4049
	501	2	22.9993	-0.0033	-0.0076
	502	2	22.9992	-0.0	4.5908
	503	2	23.0058	-0.0083	9.1944
	504	2	22.9944	-0.0073	13.8026
	505	2	22.9979	0.0018	18.3979
	506	2	22.9962	0.0092	23.0085
	507	2	23.0076	-0.0029	27.598
	508	2	22.9979	-0.0057	32.1914
	509	2	23.0079	-0.0009	36.8074
	510	2	23.0007	0.0044	41.3932
	511	2	23.0011	4.594	-0.0029
	512	2	22.9966	4.6012	4.5955
	513	2	23.006	4.5911	9.2009
	514	2	22.9918	4.595	13.7995
	515	2	23.0013	4.6059	18.398
	516	2	23.0066	4.6072	23.0069
	517	2	23.0094	4.5915	27.59
	518	2	23.0025	4.5922	32.2063
	519	2	22.9937	4.5975	36.8051
	520	2	22.992	4.6027	41.4097
	521	2	23.0031	9.1985	-0.006
	522	2	23.0069	9.2018	4.6057
	523	2	23.0093	9.1958	9.207
	524	2	22.995	9.2018	13.7996
	525	2	22.9975	9.1936	18.4092
	526	2	22.99	9.2023	23.0039
	527	2	23.007	9.2023	27.6005
	528	2	22.9991	9.192	32.2027
	529	2	22.9923	9.203	36.7994
	530	2	23.0077	9.1956	41.4081
	531	2	22.998	13.8094	0.0052
	532	2	22.9971	13.7929	4.6082
	533	2	22.9995	13.7984	9.2041
	534	2	22.9955	13.7944	13.8086
	535	2	23.0069	13.8068	18.3953
	536	2	22.9993	13.8084	22.9943
	537	2	22.9933	13.8027	27.5917
	538	2	23.0	13.8092	32.2038
	539	2	22.9927	13.794	36.7931
	540	2	23.0012	13.7951	41.4049
	541	2	22.9917	18.4002	-0.0021
	542	2	23.003	18.3935	4.602
	543	2	22.9938	18.3967	9.1977
	544	2	22.9985	18.3909	13.8067
	545	2	22.994	18.395	18.4057
	546	2	22.9908	18.3995	22.9962
	547	2	23.0047	18.4084	27.6096
	548	2	23.0038	18.4088	32.1986
	549	2	22.9922	18.4026	36.795
	550	2	22.9912	18.4097	41.4073
	551	2	23.0091	23.0057	-0.0041
	552	2	22.9968	22.9941	4.6046
	553	2	22.9956	22.999	9.1939
	554	2	22.9939	23.0009	13.8075
	555	2	22.9993	23.0072	18.4024
	556	2	23.0025	23.0083	23.0024
	557	2	22.9981	23.0014	27.607
	558	2	23.0011	23.0088	32.1951
	559	2	23.0055	22.9994	36.7923
	560	2	23.0006	23.0007	41.3972
	561	2	22.9997	27.5941	0.0087
	562	2	23.0077	27.6032	4.6088
	563	2	22.9957	27.596	9.2006
	564	2	23.0053	27.5943	13.7935
	565	2	23.0009	27.5929	18.3934
	566	2	23.0004	27.5904	22.9985
	567	2	22.9944	27.6081	27.5924
	568	2	23.0016	27.5905	32.1902
	569	2	22.9946	27.6089	36.8076
	570	2	23.0082	27.5986	41.4026
	571	2	23.0048	32.1916	0.0093
	572	2	23.0011	32.1923	4.6009
	573	2	22.997	32.191	9.2094
	574	2	23.0064	32.2039	13.8002
	575	2	22.9987	32.1964	18.3909
	576	2	22.9947	32.2057	23.0018
	577	2	22.9991	32.2055	27.6084
	578	2	23.007	32.1981	32.1954
	579	2	23.0009	32.192	36.7917
	580	2	23.0037	32.1935	41.4049
	581	2	23.0093	36.7918	0.0064
	582	2	22.9972	36.7913	4.5985
	583	2	23.0035	36.8024	9.2038
	584	2	22.9926	36.7916	13.8077
	585	2	23.0046	36.795	18.408
	586	2	22.9928	36.8053	23.0003
	587	2	22.9914	36.7936	27.5963
	588	2	23.0006	36.8073	32.2096
	589	2	23.0053	36.8086	36.8066
	590	2	22.9936	36.8047	41.4095
	591	2	22.992	41.3983	-0.0027
	592	2	23.0017	41.4013	4.5947
	593	2	22.999	41.3917	9.1951
	594	2	22.9935	41.3922	13.8011
	595	2	22.9954	41.3989	18.3986
	596	2	22.9966	41.4016	22.9939
	597	2	23.0069	41.3956	27.5979
	598	2	23.0016	41.4007	32.2077
	599	2	22.9912	41.3939	36.806
	600	2	23.0063	41.3959	41.3994
	601	2	27.6025	0.0095	-0.0054
	602	2	27.608	0.0074	4.6055
	603	2	27.6082	-0.0015	9.2089
	604	2	27.6012	0.0042	13.8069
	605	2	27.6049	-0.0063	18.409
	606	2	27.5912	-0.0062	23.0034
	607	2	27.5925	-0.0042	27.6004
	608	2	27.5925	0.0001	32.2041
	609	2	27.6035	0.0018	36.8005
	610	2	27.5975	-0.0016	41.4088
	611	2	27.6063	4.6042	0.0091
	612	2	27.609	4.5921	4.6054
	613	2	27.6064	4.5923	9.2043
	614	2	27.6081	4.6038	13.7967
	615	2	27.6032	4.6044	18.3966
	616	2	27.5925	4.5968	22.99
	617	2	27.6053	4.5903	27.601
	618	2	27.5948	4.6039	32.2049
	619	2	27.5907	4.595	36.7921
	620	2	27.5995	4.5986	41.3963
	621	2	27.607	9.1996	0.0065
	622	2	27.6046	9.193	4.5977
	623	2	27.594	9.2001	9.1983
	624	2	27.603	9.1978	13.7984
	625	2	27.6082	9.2089	18.3955
	626	2	27.6015	9.206	22.999
	627	2	27.6007	9.1996	27.5992
	628	2	27.6009	9.2016	32.1992
	629	2	27.595	9.2076	36.7982
	630	2	27.6083	9.2006	41.4004
	631	2	27.6044	13.7911	0.0022
	632	2	27.5999	13.7938	4.6045
	633	2	27.5932	13.8	9.1926
	634	2	27.5955	13.8025	13.7985
	635	2	27.5958	13.806	18.4003
	636	2	27.5977	13.7988	22.9945
	637	2	27.5923	13.8038	27.5902
	638	2	27.6085	13.8016	32.2051
	639	2	27.6003	13.8029	36.7945
	640	2	27.6023	13.8071	41.3965
	641	2	27.5977	18.3998	0.0044
	642	2	27.5901	18.3925	4.5948
	643	2	27.5974	18.3939	9.1977
	644	2	27.5941	18.4098	13.7925
	645	2	27.6058	18.3937	18.3976
	646	2	27.5923	18.397	22.9935
	647	2	27.6098	18.3991	27.5914
	648	2	27.601	18.395	32.1951
	649	2	27.5927	18.3995	36.7938
	650	2	27.6011	18.4051	41.3923
	651	2	27.5919	23.002	0.0037
	652	2	27.6035	23.0019	4.6036
	653	2	27.5958	22.9985	9.1959
	654	2	27.5914	23.0028	13.7964
	655	2	27.6055	22.9949	18.3925
	656	2	27.5918	22.9944	22.9914
	657	2	27.5963	22.9934	27.5951
	658	2	27.6075	22.9985	32.195
	659	2	27.5924	23.0068	36.81
	660	2	27.5985	23.0073	41.397
	661	2	27.6079	27.6093	0.0069
	662	2	27.6095	27.6061	4.5962
	663	2	27.6033	27.6054	9.2049
	664	2	27.5902	27.5959	13.8008
	665	2	27.5921	27.6011	18.3906
	666	2	27.61	27.6003	23.005
	667	2	27.5919	27.6052	27.5942
	668	2	27.5909	27.5943	32.2088
	669	2	27.61	27.6009	36.7959
	670	2	27.5964	27.602	41.3952
	671	2	27.5971	32.1944	0.0079
	672	2	27.6034	32.1992	4.6091
	673	2	27.5978	32.1907	9.1922
	674	2	27.6099	32.2	13.8063
	675	2	27.592	32.2037	18.4039
	676	2	27.6055	32.2001	23.0097
	677	2	27.6022	32.1987	27.5901
	678	2	27.59	32.2033	32.1994
	679	2	27.5928	32.2017	36.7932
	680	2	27.5937	32.2053	41.4019
	681	2	27.5967	36.8071	0.0073
	682	2	27.5985	36.7981	4.594
	683	2	27.5919	36.7937	9.2044
	684	2	27.5962	36.8011	13.8037
	685	2	27.5938	36.8005	18.4085
	686	2	27.5975	36.7924	22.9908
	687	2	27.5929	36.8077	27.6
	688	2	27.609	36.7983	32.2037
	689	2	27.609	36.7997	36.8093
	690	2	27.5925	36.7989	41.3992
	691	2	27.6021	41.4029	0.0019
	692	2	27.6025	41.3988	4.5964
	693	2	27.6092	41.4046	9.1947
	694	2	27.6007	41.4026	13.8082
	695	2	27.604	41.3939	18.3948
	696	2	27.6014	41.4099	22.99
	697	2	27.606	41.4073	27.5935
	698	2	27.5987	41.4058	32.1974
	699	2	27.6001	41.4089	36.8002
	700	2	27.5936	41.3916	41.406
	701	2	32.2053	-0.0058	-0.009
	702	2	32.2093	0.006	4.5982
	703	2	32.205	-0.0083	9.1941
	704	2	32.1983	0.007	13.8016
	705	2	32.192	0.0011	18.3901
	706	2	32.2078	0.0058	22.9947
	707	2	32.2074	0.001	27.5992
	708	2	32.2022	-0.0013	32.1999
	709	2	32.1978	0.006	36.7938
	710	2	32.2079	0.0089	41.3986
	711	2	32.2033	4.605	0.0067
	712	2	32.194	4.6086	4.6058
	713	2	32.1992	4.5904	9.2042
	714	2	32.1966	4.5977	13.8029
	715	2	32.2081	4.5995	18.4077
	716	2	32.2099	4.5921	22.9926
	717	2	32.2004	4.6047	27.5957
	718	2	32.2052	4.5916	32.2031
	719	2	32.2056	4.6025	36.8093
	720	2	32.1985	4.608	41.3992
	721	2	32.2047	9.2066	0.0067
	722	2	32.1941	9.1962	4.5978
	723	2	32.1943	9.2084	9.2019
	724	2	32.195	9.1995	13.7987
	725	2	32.1969	9.2064	18.3904
	726	2	32.1922	9.2036	23.0
	727	2	32.2099	9.1959	27.5948
	728	2	32.2053	9.209	32.1965
	729	2	32.1962	9.1948	36.7957
	730	2	32.2092	9.1995	41.4023
	731	2	32.2031	13.8011	-0.0092
	732	2	32.2027	13.8027	4.6018
	733	2	32.2093	13.808	9.1935
	734	2	32.2098	13.8007	13.8091
	735	2	32.1938	13.793	18.394
	736	2	32.1935	13.7936	23.0061
	737	2	32.2046	13.8005	27.6081
	738	2	32.2008	13.7998	32.2034
	739	2	32.2098	13.798	36.8046
	740	2	32.2072	13.8091	41.3992
	741	2	32.1984	18.3908	-0.0034
	742	2	32.1932	18.3963	4.6086
	743	2	32.2097	18.3978	9.2061
	744	2	32.1943	18.399	13.7969
	745	2	32.2072	18.4031	18.3962
	746	2	32.1994	18.4072	22.9974
	747	2	32.192	18.3973	27.6043
	748	2	32.2067	18.3913	32.197
	749	2	32.2081	18.4019	36.7994
	750	2	32.1979	18.4071	41.4045
	751	2	32.2094	23.0095	0.0079
	752	2	32.1978	23.0046	4.5971
	753	2	32.1985	23.0031	9.1911
	754	2	32.1934	22.9978	13.7964
	755	2	32.1918	22.9948	18.406
	756	2	32.1951	22.9918	22.9932
	757	2	32.1944	23.002	27.5919
	758	2	32.2039	23.0034	32.2039
	759	2	32.1957	23.0095	36.7916
	760	2	32.2031	22.9903	41.3976
	761	2	32.2027	27.6004	0.0093
	762	2	32.2029	27.6078	4.6079
	763	2	32.2079	27.609	9.1968
	764	2	32.1968	27.6011	13.7925
	765	2	32.1935	27.603	18.4064
	766	2	32.2053	27.5969	23.0095
	767	2	32.1961	27.5909	27.6071
	768	2	32.2009	27.6041	32.2079
	769	2	32.2038	27.6023	36.7917
	770	2	32.1997	27.6033	41.4041
	771	2	32.1907	32.1948	0.0047
	772	2	32.2084	32.2086	4.6018
	773	2	32.1905	32.2008	9.2015
	774	2	32.1967	32.2005	13.7993
	775	2	32.2007	32.2046	18.4034
	776	2	32.1992	32.1925	22.9958
	777	2	32.2048	32.2002	27.5943
	778	2	32.1958	32.1974	32.1947
	779	2	32.2004	32.2027	36.7955
	780	2	32.2029	32.2002	41.3901
	781	2	32.1936	36.8053	-0.0017
	782	2	32.1953	36.8019	4.598
	783	2	32.204	36.7907	9.199
	784	2	32.1968	36.7926	13.8081
	785	2	32.2063	36.796	18.3975
	786	2	32.1937	36.8088	22.9968
	787	2	32.1999	36.8074	27.5986
	788	2	32.1964	36.7977	32.1933
	789	2	32.1949	36.7921	36.7948
	790	2	32.1918	36.7916	41.394
	791	2	32.1986	41.407	0.006
	792	2	32.2033	41.4031	4.5964
	793	2	32.1939	41.4043	9.2052
	794	2	32.1917	41.4021	13.7961
	795	2	32.2008	41.401	18.4097
	796	2	32.1906	41.396	23.0095
	797	2	32.2021	41.4078	27.5913
	798	2	32.1961	41.4085	32.2035
	799	2	32.1963	41.3909	36.8049
	800	2	32.1986	41.4053	41.3973
	801	2	36.7902	0.0088	-0.0083
	802	2	36.8096	-0.0051	4.6043
	803	2	36.7944	0.0027	9.2084
	804	2	36.7908	0.0058	13.8037
	805	2	36.7955	-0.0074	18.4072
	806	2	36.7983	-0.007	22.9984
	807	2	36.802	-0.0015	27.6016
	808	2	36.805	0.0069	32.1943
	809	2	36.804	0.0023	36.8035
	810	2	36.808	0.0036	41.4048
	811	2	36.7947	4.592	-0.0028
	812	2	36.8063	4.6084	4.6048
	813	2	36.7963	4.6065	9.2075
	814	2	36.7977	4.5954	13.8014
	815	2	36.8077	4.6092	18.3936
	816	2	36.8	4.5917	23.0073
	817	2	36.8088	4.5963	27.5936
	818	2	36.7999	4.5955	32.1986
	819	2	36.8093	4.6022	36.7932
	820	2	36.809	4.5944	41.3914
	821	2	36.8066	9.203	-0.0069
	822	2	36.8008	9.2011	4.6008
	823	2	36.8064	9.1993	9.1944
	824	2	36.794	9.1924	13.8029
	825	2	36.8001	9.2041	18.4092
	826	2	36.8	9.2077	23.0027
	827	2	36.8061	9.2053	27.5974
	828	2	36.7942	9.1962	32.1954
	829	2	36.8025	9.2013	36.8073
	830	2	36.7976	9.1995	41.4028
	831	2	36.7958	13.8053	-0.0061
	832	2	36.8047	13.7925	4.6028
	833	2	36.8022	13.8059	9.1931
	834	2	36.7961	13.8092	13.8085
	835	2	36.8013	13.8049	18.4073
	836	2	36.8012	13.8083	22.9971
	837	2	36.8054	13.8043	27.5986
	838	2	36.7914	13.802	32.1927
	839	2	36.8092	13.796	36.7929
	840	2	36.8089	13.7921	41.3941
	841	2	36.7995	18.409	0.0068
	842	2	36.798	18.4002	4.5952
	843	2	36.8086	18.3906	9.2078
	844	2	36.7967	18.3992	13.7974
	845	2	36.7908	18.403	18.3958
	846	2	36.8087	18.4043	23.0032
	847	2	36.7928	18.4002	27.6009
	848	2	36.8095	18.3975	32.2043
	849	2	36.8019	18.3902	36.7913
	850	2	36.7979	18.4076	41.4072
	851	2	36.8022	22.9983	0.0042
	852	2	36.7997	23.0014	4.6025
	853	2	36.7949	22.9943	9.2011
	854	2	36.7919	22.996	13.7967
	855	2	36.8063	22.9922	18.3911
	856	2	36.808	22.992	23.0052
	857	2	36.8008	23.0054	27.6016
	858	2	36.7901	23.0023	32.1979
	859	2	36.7957	23.0004	36.8034
	860	2	36.8071	23.0024	41.3987
	861	2	36.8005	27.5972	-0.0016
	862	2	36.801	27.5994	4.6013
	863	2	36.8069	27.604	9.21
	864	2	36.7922	27.6001	13.7942
	865	2	36.7997	27.5948	18.4059
	866	2	36.7992	27.5932	22.9951
	867	2	36.8067	27.5942	27.6009
	868	2	36.7967	27.5926	32.2078
	869	2	36.7981	27.6071	36.7986
	870	2	36.8029	27.5963	41.3927
	871	2	36.7942	32.1963	-0.0015
	872	2	36.7974	32.2006	4.5917
	873	2	36.8051	32.2002	9.204
	874	2	36.8047	32.1911	13.7927
	875	2	36.7967	32.1915	18.4059
	876	2	36.8028	32.2075	22.9935
	877	2	36.8051	32.2026	27.6007
	878	2	36.7901	32.2059	32.1928
	879	2	36.7994	32.192	36.802
	880	2	36.8097	32.1906	41.3903
	881	2	36.7956	36.7964	-0.0089
	882	2	36.802	36.8074	4.6058
	883	2	36.7931	36.8066	9.197
	884	2	36.7916	36.7979	13.8061
	885	2	36.8023	36.801	18.4057
	886	2	36.8037	36.7962	22.9966
	887	2	36.8007	36.7949	27.5992
	888	2	36.7977	36.7981	32.2011
	889	2	36.8072	36.7973	36.7987
	890	2	36.801	36.8033	41.3934
	891	2	36.7907	41.394	-0.0034
	892	2	36.804	41.4022	4.604
	893	2	36.7946	41.4019	9.1932
	894	2	36.8044	41.41	13.8074
	895	2	36.8097	41.4032	18.4019
	896	2	36.8003	41.3977	22.9933
	897	2	36.8091	41.3984	27.609
	898	2	36.8001	41.3952	32.2079
	899	2	36.804	41.3979	36.8081
	900	2	36.7958	41.4026	41.3944
	901	2	41.401	0.0055	0.0027
	902	2	41.4007	0.0092	4.5911
	903	2	41.3992	0.0065	9.205
	904	2	41.3926	-0.0088	13.8077
	905	2	41.3932	-0.0091	18.4043
	906	2	41.4076	-0.0029	22.9934
	907	2	41.3943	0.0033	27.6039
	908	2	41.3976	-0.0017	32.193
	909	2	41.4097	0.0084	36.7975
	910	2	41.4014	-0.0075	41.4055
	911	2	41.4014	4.5934	-0.0098
	912	2	41.4068	4.6039	4.6093
	913	2	41.41	4.5921	9.2013
	914	2	41.4008	4.5923	13.8053
	915	2	41.4068	4.6069	18.399
	916	2	41.4085	4.5938	22.995
	917	2	41.405	4.5962	27.5991
	918	2	41.3905	4.6051	32.1959
	919	2	41.3959	4.5921	36.8009
	920	2	41.4039	4.6088	41.3915
	921	2	41.4086	9.1926	-0.0009
	922	2	41.3941	9.2087	4.6097
	923	2	41.4052	9.2031	9.2009
	924	2	41.3914	9.1907	13.7977
	925	2	41.3905	9.1913	18.402
	926	2	41.3962	9.197	22.9903
	927	2	41.3977	9.2048	27.5997
	928	2	41.3969	9.2052	32.1923
	929	2	41.3975	9.2008	36.8074
	930	2	41.4028	9.2089	41.3911
	931	2	41.4026	13.7993	-0.0009
	932	2	41.4011	13.7926	4.6089
	933	2	41.4058	13.797	9.1924
	934	2	41.4091	13.7995	13.7951
	935	2	41.4071	13.794	18.3948
	936	2	41.3909	13.7973	22.9976
	937	2	41.4065	13.803	27.5968
	938	2	41.4057	13.8029	32.1968
	939	2	41.4001	13.7977	36.8013
	940	2	41.3913	13.7962	41.407
	941	2	41.4068	18.3959	-0.0013
	942	2	41.3985	18.4042	4.6001
	943	2	41.4069	18.4046	9.1988
	944	2	41.4066	18.3937	13.8087
	945	2	41.407	18.3927	18.401
	946	2	41.3932	18.3955	22.9947
	947	2	41.4043	18.402	27.6072
	948	2	41.3978	18.3973	32.1994
	949	2	41.3954	18.3901	36.8048
	950	2	41.4015	18.3989	41.4049
	951	2	41.3947	22.9954	0.0084
	952	2	41.3972	22.9916	4.5963
	953	2	41.3983	23.0065	9.2086
	954	2	41.3937	22.9915	13.7938
	955	2	41.3942	23.0091	18.408
	956	2	41.4083	23.0036	23.0028
	957	2	41.399	23.0026	27.5972
	958	2	41.4038	22.9994	32.1923
	959	2	41.4097	22.9928	36.7966
	960	2	41.3939	22.9958	41.4048
	961	2	41.3906	27.6042	-0.0068
	962	2	41.409	27.6088	4.6085
	963	2	41.4004	27.5958	9.1939
	964	2	41.4031	27.6028	13.7912
	965	2	41.4064	27.6001	18.3965
	966	2	41.404	27.6092	22.9935
	967	2	41.4064	27.607	27.5962
	968	2	41.4029	27.6089	32.1972
	969	2	41.405	27.5995	36.8011
	970	2	41.4094	27.5954	41.401
	971	2	41.4046	32.2007	0.0078
	972	2	41.3935	32.207	4.6089
	973	2	41.4003	32.2038	9.1971
	974	2	41.392	32.2013	13.7942
	975	2	41.3946	32.2029	18.4091
	976	2	41.4058	32.2048	23.0044
	977	2	41.4055	32.2032	27.5923
	978	2	41.3979	32.1996	32.2068
	979	2	41.4034	32.1904	36.8047
	980	2	41.3944	32.1962	41.4027
	981	2	41.3968	36.8002	0.0098
	982	2	41.4075	36.7976	4.6035
	983	2	41.4076	36.8066	9.1973
	984	2	41.4026	36.8095	13.8093
	985	2	41.3975	36.8058	18.3958
	986	2	41.3923	36.8025	22.9905
	987	2	41.4049	36.7919	27.5908
	988	2	41.3975	36.798	32.2038
	989	2	41.4074	36.8029	36.8022
	990	2	41.3921	36.8028	41.4071
	991	2	41.4013	41.4031	-0.0032
	992	2	41.4083	41.4071	4.597
	993	2	41.3932	41.392	9.1967
	994	2	41.3984	41.406	13.8059
	995	2	41.405	41.3953	18.4051
	996	2	41.4078	41.4035	22.9962
	997	2	41.3949	41.395	27.5907
	998	2	41.3989	41.4094	32.1954
	999	2	41.4001	41.4076	36.8003
	1000	2	41.3955	41.3958	41.3987