Nickle Copper Simulation

365 	atoms
0 	bonds
0 	angles
0 	dihedrals
0 	impropers

2	atom types
0	bond types
0	angle types
0	dihedral types
0	improper types

-0.02	18.419999999999998	xlo xhi
-0.02	18.419999999999998	ylo yhi
-0.02	18.419999999999998	zlo zhi

Atoms

	1	2	-0.0023	0.0041	-0.0025
	2	2	0.0018	-0.0043	4.6086
	3	2	-0.0012	-0.0046	9.2096
	4	2	-0.0097	0.0069	13.7903
	5	2	-0.0089	0.0023	18.4009
	6	2	0.002	4.5959	0.007
	7	2	-0.0079	4.6055	4.5968
	8	2	0.0074	4.6002	9.1975
	9	2	-0.003	4.5944	13.7981
	10	2	0.0068	4.6087	18.4063
	11	2	-0.0077	9.1959	0.0046
	12	2	-0.0074	9.1912	4.5987
	13	2	-0.0041	9.2073	9.2004
	14	2	0.0062	9.1997	13.7975
	15	2	0.0093	9.2053	18.391
	16	2	-0.0092	13.8064	0.0084
	17	2	0.01	13.8015	4.6085
	18	2	0.009	13.7903	9.1982
	19	2	-0.0057	13.7953	13.7998
	20	2	-0.0091	13.7919	18.3965
	21	2	0.0084	18.4071	0.0082
	22	2	-0.005	18.4038	4.5978
	23	2	-0.0022	18.3982	9.1944
	24	2	0.0019	18.3942	13.7925
	25	2	0.0017	18.3916	18.4021
	26	2	4.6076	0.0045	0.0018
	27	2	4.5998	-0.0028	4.6015
	28	2	4.5909	0.0096	9.1986
	29	2	4.6054	0.0003	13.8007
	30	2	4.6033	0.0034	18.3974
	31	2	4.6049	4.599	0.0084
	32	2	4.6019	4.5915	4.5971
	33	2	4.598	4.6009	9.1901
	34	2	4.6005	4.5936	13.8056
	35	2	4.5908	4.6067	18.4067
	36	2	4.6056	9.2006	0.008
	37	2	4.5934	9.199	4.6006
	38	2	4.608	9.2073	9.1918
	39	2	4.5977	9.2062	13.7953
	40	2	4.6045	9.195	18.4067
	41	2	4.6092	13.7938	-0.0054
	42	2	4.6036	13.8084	4.5998
	43	2	4.6081	13.7932	9.1924
	44	2	4.5919	13.7916	13.7991
	45	2	4.6049	13.8003	18.4022
	46	2	4.5946	18.3956	-0.0039
	47	2	4.5951	18.4017	4.6034
	48	2	4.6031	18.4044	9.1973
	49	2	4.5913	18.4053	13.8091
	50	2	4.6001	18.3925	18.4018
	51	2	9.2078	0.0066	-0.0064
	52	2	9.1944	-0.008	4.6063
	53	2	9.1937	-0.0081	9.2007
	54	2	9.1988	0.0048	13.807
	55	2	9.2024	-0.0011	18.3921
	56	2	9.2085	4.6044	-0.0023
	57	2	9.1926	4.5992	4.5912
	58	2	9.2085	4.5913	9.1903
	59	2	9.1906	4.5905	13.8072
	60	2	9.1955	4.5956	18.4062
	61	2	9.1969	9.2049	0.0023
	62	2	9.1964	9.1959	4.5972
	63	2	9.1985	9.2007	9.1992
	64	2	9.1995	9.205	13.792
	65	2	9.1979	9.1915	18.4001
	66	2	9.2011	13.7995	-0.009
	67	2	9.191	13.8065	4.606
	68	2	9.2032	13.7986	9.1913
	69	2	9.1969	13.8014	13.7998
	70	2	9.2062	13.8002	18.3909
	71	2	9.193	18.3978	-0.0041
	72	2	9.2084	18.405	4.5908
	73	2	9.1987	18.3923	9.2037
	74	2	9.2066	18.401	13.7917
	75	2	9.1983	18.3921	18.3936
	76	2	13.808	0.0085	0.0083
	77	2	13.7913	-0.001	4.6
	78	2	13.7992	0.0043	9.2006
	79	2	13.7971	-0.0044	13.8059
	80	2	13.7975	0.004	18.4066
	81	2	13.7999	4.5935	0.0031
	82	2	13.8059	4.5949	4.595
	83	2	13.8095	4.6059	9.2086
	84	2	13.8049	4.6053	13.7908
	85	2	13.794	4.5926	18.4019
	86	2	13.7978	9.1994	0.0021
	87	2	13.8028	9.1994	4.6088
	88	2	13.796	9.1956	9.2065
	89	2	13.8002	9.1986	13.8052
	90	2	13.8023	9.1996	18.3905
	91	2	13.7963	13.7932	0.0047
	92	2	13.7906	13.7916	4.6068
	93	2	13.7909	13.803	9.2078
	94	2	13.7973	13.7978	13.8085
	95	2	13.7906	13.7928	18.4012
	96	2	13.799	18.3907	-0.0058
	97	2	13.8053	18.3932	4.6034
	98	2	13.8029	18.4048	9.1992
	99	2	13.7921	18.3928	13.7974
	100	2	13.7998	18.3908	18.3987
	101	2	18.393	-0.0054	-0.0006
	102	2	18.3997	0.0026	4.5929
	103	2	18.4033	0.0009	9.199
	104	2	18.3988	0.009	13.8036
	105	2	18.4062	-0.0074	18.3998
	106	2	18.4092	4.6057	0.0005
	107	2	18.4048	4.5914	4.6089
	108	2	18.3997	4.6052	9.1915
	109	2	18.3994	4.5932	13.7902
	110	2	18.4088	4.6028	18.3945
	111	2	18.399	9.1934	-0.003
	112	2	18.4018	9.2026	4.5995
	113	2	18.4078	9.1974	9.207
	114	2	18.4089	9.2087	13.7976
	115	2	18.3983	9.193	18.3945
	116	2	18.3941	13.795	-0.01
	117	2	18.3915	13.8019	4.6077
	118	2	18.3961	13.7982	9.2003
	119	2	18.4073	13.7983	13.7959
	120	2	18.4039	13.8079	18.3912
	121	2	18.4093	18.4052	0.0069
	122	2	18.4074	18.4055	4.6028
	123	2	18.3963	18.4027	9.1914
	124	2	18.3961	18.3924	13.8093
	125	2	18.3921	18.4062	18.4082
	126	2	2.3051	2.3067	-0.0085
	127	2	2.2955	2.2954	4.6082
	128	2	2.2928	2.3039	9.2054
	129	2	2.2939	2.3077	13.8081
	130	2	2.2975	2.2998	18.3916
	131	2	2.2992	6.9074	-0.0084
	132	2	2.2963	6.8951	4.5904
	133	2	2.3019	6.9058	9.2028
	134	2	2.2909	6.9005	13.7946
	135	2	2.3083	6.8949	18.4078
	136	2	2.3008	11.4949	0.0003
	137	2	2.2975	11.5008	4.596
	138	2	2.306	11.5009	9.194
	139	2	2.2904	11.4909	13.7949
	140	2	2.2954	11.4956	18.3963
	141	2	2.301	16.0996	-0.0026
	142	2	2.2945	16.0987	4.5962
	143	2	2.3059	16.1017	9.1966
	144	2	2.3033	16.0927	13.792
	145	2	2.2979	16.1064	18.4015
	146	2	6.8989	2.2999	0.0039
	147	2	6.9072	2.3061	4.5938
	148	2	6.9026	2.3048	9.1913
	149	2	6.8973	2.2958	13.7918
	150	2	6.9005	2.3039	18.3915
	151	2	6.8985	6.8924	-0.0088
	152	2	6.9033	6.8954	4.593
	153	2	6.8979	6.9029	9.2018
	154	2	6.8995	6.9098	13.7909
	155	2	6.9055	6.8943	18.4002
	156	2	6.8938	11.5044	-0.0072
	157	2	6.9094	11.4972	4.5953
	158	2	6.8969	11.4934	9.1912
	159	2	6.91	11.5063	13.8009
	160	2	6.8934	11.5039	18.3986
	161	2	6.9053	16.0967	0.0028
	162	2	6.9062	16.0977	4.5937
	163	2	6.8988	16.0909	9.1987
	164	2	6.8947	16.0993	13.797
	165	2	6.8934	16.0997	18.4029
	166	2	11.5078	2.2907	-0.001
	167	2	11.4946	2.2998	4.6099
	168	2	11.4945	2.2978	9.2016
	169	2	11.5024	2.2988	13.7937
	170	2	11.5063	2.3087	18.4054
	171	2	11.4951	6.8965	-0.01
	172	2	11.5095	6.9032	4.5981
	173	2	11.4961	6.9034	9.2074
	174	2	11.491	6.8936	13.7988
	175	2	11.5004	6.8986	18.3981
	176	2	11.4963	11.5002	-0.0008
	177	2	11.4944	11.4937	4.6089
	178	2	11.4917	11.4998	9.1939
	179	2	11.4902	11.5055	13.798
	180	2	11.504	11.4948	18.3921
	181	2	11.5058	16.1041	0.0025
	182	2	11.5011	16.0981	4.5947
	183	2	11.5001	16.1059	9.2094
	184	2	11.5042	16.1089	13.807
	185	2	11.4982	16.0974	18.4089
	186	2	16.109	2.3089	0.0098
	187	2	16.1055	2.308	4.6024
	188	2	16.0905	2.2928	9.2037
	189	2	16.1013	2.2958	13.7952
	190	2	16.0974	2.2986	18.3975
	191	2	16.1012	6.8936	-0.0068
	192	2	16.1032	6.8992	4.6065
	193	2	16.1049	6.9082	9.2063
	194	2	16.1079	6.8936	13.7966
	195	2	16.0923	6.9055	18.3936
	196	2	16.0996	11.4949	-0.0006
	197	2	16.0946	11.4956	4.5945
	198	2	16.1043	11.4967	9.1991
	199	2	16.1092	11.4924	13.7939
	200	2	16.1065	11.5013	18.3984
	201	2	16.0905	16.0974	-0.0024
	202	2	16.1056	16.1077	4.5935
	203	2	16.1074	16.098	9.1963
	204	2	16.1032	16.0981	13.8049
	205	2	16.1042	16.094	18.3954
	206	2	2.2947	0.0064	2.2976
	207	2	2.2907	0.0056	6.9052
	208	2	2.3068	-0.0068	11.5006
	209	2	2.3063	0.0029	16.0962
	210	2	2.3099	4.5996	2.3083
	211	2	2.2992	4.5956	6.9024
	212	2	2.3094	4.6023	11.5003
	213	2	2.3057	4.6041	16.1081
	214	2	2.3097	9.1927	2.3005
	215	2	2.2956	9.2099	6.8977
	216	2	2.3024	9.203	11.4995
	217	2	2.2979	9.1907	16.0955
	218	2	2.3066	13.8023	2.2922
	219	2	2.3085	13.8061	6.9061
	220	2	2.3099	13.8048	11.5078
	221	2	2.3024	13.7956	16.1018
	222	2	2.2918	18.4021	2.3095
	223	2	2.298	18.3938	6.9071
	224	2	2.2946	18.3972	11.4915
	225	2	2.3036	18.4084	16.1047
	226	2	6.899	-0.0099	2.2902
	227	2	6.8969	-0.0047	6.9039
	228	2	6.906	0.0015	11.5058
	229	2	6.8986	0.0055	16.0911
	230	2	6.9055	4.6027	2.304
	231	2	6.9001	4.5919	6.9041
	232	2	6.8924	4.6013	11.4908
	233	2	6.9094	4.5921	16.1076
	234	2	6.9059	9.2056	2.2931
	235	2	6.8986	9.1956	6.9098
	236	2	6.892	9.2084	11.5092
	237	2	6.9018	9.1907	16.1056
	238	2	6.8928	13.806	2.2913
	239	2	6.8931	13.8059	6.9037
	240	2	6.8914	13.7974	11.4924
	241	2	6.893	13.8038	16.1078
	242	2	6.9024	18.4033	2.3026
	243	2	6.9008	18.3907	6.91
	244	2	6.9024	18.3976	11.5038
	245	2	6.8919	18.3988	16.0954
	246	2	11.5091	-0.006	2.3065
	247	2	11.4981	0.0059	6.8934
	248	2	11.5076	-0.0052	11.4961
	249	2	11.4972	0.0056	16.1026
	250	2	11.5004	4.5928	2.2961
	251	2	11.4952	4.593	6.9029
	252	2	11.4941	4.6016	11.508
	253	2	11.5092	4.602	16.1038
	254	2	11.503	9.2082	2.2965
	255	2	11.5052	9.1952	6.9049
	256	2	11.4957	9.1926	11.5097
	257	2	11.4967	9.1975	16.0903
	258	2	11.4959	13.8093	2.3026
	259	2	11.5099	13.8069	6.8968
	260	2	11.5076	13.7962	11.4995
	261	2	11.5033	13.793	16.0982
	262	2	11.4906	18.3995	2.2946
	263	2	11.4903	18.4016	6.9009
	264	2	11.5005	18.3922	11.4972
	265	2	11.5086	18.3907	16.103
	266	2	16.0967	-0.0083	2.3054
	267	2	16.1022	0.0039	6.8931
	268	2	16.0937	-0.0016	11.4937
	269	2	16.1037	-0.0017	16.0942
	270	2	16.0944	4.5973	2.2932
	271	2	16.1025	4.6035	6.8915
	272	2	16.0913	4.6081	11.4989
	273	2	16.1009	4.6086	16.1099
	274	2	16.0976	9.2097	2.2922
	275	2	16.1024	9.1967	6.9069
	276	2	16.0966	9.1976	11.4957
	277	2	16.0942	9.2001	16.1059
	278	2	16.0914	13.7913	2.304
	279	2	16.0939	13.8016	6.8902
	280	2	16.1078	13.8005	11.5035
	281	2	16.0916	13.7949	16.1035
	282	2	16.0966	18.4057	2.2948
	283	2	16.1023	18.4034	6.8917
	284	2	16.1056	18.3986	11.4906
	285	2	16.0938	18.3995	16.1064
	286	2	0.0007	2.3063	2.29
	287	2	-0.0071	2.3039	6.8974
	288	2	0.0028	2.3035	11.508
	289	2	0.0088	2.3028	16.1081
	290	2	-0.0019	6.899	2.2959
	291	2	0.0092	6.9071	6.9085
	292	2	0.0071	6.9071	11.5095
	293	2	0.0014	6.8937	16.0923
	294	2	-0.0051	11.4966	2.2943
	295	2	-0.0022	11.5035	6.8925
	296	2	-0.0008	11.5069	11.5005
	297	2	0.0027	11.4929	16.109
	298	2	-0.0088	16.0962	2.2992
	299	2	0.005	16.103	6.8912
	300	2	-0.007	16.1055	11.5065
	301	2	-0.0071	16.1083	16.0909
	302	2	4.5922	2.2901	2.2985
	303	2	4.5943	2.2913	6.8961
	304	2	4.608	2.3088	11.5077
	305	2	4.6073	2.2957	16.1076
	306	2	4.5937	6.8938	2.2971
	307	2	4.6099	6.8904	6.9062
	308	2	4.6079	6.9002	11.4927
	309	2	4.6054	6.8915	16.1021
	310	2	4.6056	11.5093	2.3059
	311	2	4.5962	11.4933	6.8959
	312	2	4.6095	11.493	11.5019
	313	2	4.6053	11.4978	16.0979
	314	2	4.6095	16.0934	2.2916
	315	2	4.5906	16.1003	6.8913
	316	2	4.6068	16.1026	11.5068
	317	2	4.5927	16.0977	16.0935
	318	2	9.1961	2.3023	2.3076
	319	2	9.1947	2.3025	6.9063
	320	2	9.1915	2.3046	11.5099
	321	2	9.1969	2.2987	16.0972
	322	2	9.1923	6.9015	2.2974
	323	2	9.2015	6.9008	6.8964
	324	2	9.2056	6.8954	11.5066
	325	2	9.1929	6.9007	16.1031
	326	2	9.1991	11.5042	2.3067
	327	2	9.2036	11.4956	6.8976
	328	2	9.1906	11.5092	11.4927
	329	2	9.2005	11.5058	16.0947
	330	2	9.2065	16.0905	2.3008
	331	2	9.2009	16.1047	6.8999
	332	2	9.1927	16.1028	11.5062
	333	2	9.2013	16.0917	16.1037
	334	2	13.7901	2.2997	2.308
	335	2	13.7982	2.3067	6.9003
	336	2	13.7957	2.3041	11.4972
	337	2	13.7962	2.3025	16.0903
	338	2	13.8087	6.8936	2.3048
	339	2	13.7936	6.9065	6.8949
	340	2	13.7996	6.8916	11.4915
	341	2	13.7957	6.8919	16.0901
	342	2	13.7905	11.4951	2.3071
	343	2	13.7919	11.506	6.9083
	344	2	13.8094	11.5077	11.5082
	345	2	13.796	11.5029	16.1078
	346	2	13.8061	16.1026	2.3096
	347	2	13.7912	16.097	6.9045
	348	2	13.8007	16.1013	11.4959
	349	2	13.8004	16.1085	16.0979
	350	2	18.3968	2.3058	2.2974
	351	2	18.3922	2.2907	6.8975
	352	2	18.394	2.3088	11.4914
	353	2	18.3949	2.3086	16.0988
	354	2	18.4052	6.8932	2.3081
	355	2	18.4082	6.9047	6.9084
	356	2	18.4071	6.9011	11.4957
	357	2	18.3969	6.905	16.098
	358	2	18.3963	11.5062	2.3037
	359	2	18.3933	11.5006	6.9021
	360	2	18.4028	11.5037	11.5062
	361	2	18.4074	11.4904	16.0943
	362	2	18.4012	16.0998	2.2937
	363	2	18.3912	16.1029	6.9
	364	2	18.3942	16.0922	11.5013
	365	2	18.3942	16.1089	16.0997

Velocities

	1	0.0	0.0	0.0
	2	0.0	0.0	0.0
	3	0.0	0.0	0.0
	4	0.0	0.0	0.0
	5	0.0	0.0	0.0
	6	0.0	0.0	0.0
	7	0.0	0.0	0.0
	8	0.0	0.0	0.0
	9	0.0	0.0	0.0
	10	0.0	0.0	0.0
	11	0.0	0.0	0.0
	12	0.0	0.0	0.0
	13	0.0	0.0	0.0
	14	0.0	0.0	0.0
	15	0.0	0.0	0.0
	16	0.0	0.0	0.0
	17	0.0	0.0	0.0
	18	0.0	0.0	0.0
	19	0.0	0.0	0.0
	20	0.0	0.0	0.0
	21	0.0	0.0	0.0
	22	0.0	0.0	0.0
	23	0.0	0.0	0.0
	24	0.0	0.0	0.0
	25	0.0	0.0	0.0
	26	0.0	0.0	0.0
	27	0.0	0.0	0.0
	28	0.0	0.0	0.0
	29	0.0	0.0	0.0
	30	0.0	0.0	0.0
	31	0.0	0.0	0.0
	32	0.0	0.0	0.0
	33	0.0	0.0	0.0
	34	0.0	0.0	0.0
	35	0.0	0.0	0.0
	36	0.0	0.0	0.0
	37	0.0	0.0	0.0
	38	0.0	0.0	0.0
	39	0.0	0.0	0.0
	40	0.0	0.0	0.0
	41	0.0	0.0	0.0
	42	0.0	0.0	0.0
	43	0.0	0.0	0.0
	44	0.0	0.0	0.0
	45	0.0	0.0	0.0
	46	0.0	0.0	0.0
	47	0.0	0.0	0.0
	48	0.0	0.0	0.0
	49	0.0	0.0	0.0
	50	0.0	0.0	0.0
	51	0.0	0.0	0.0
	52	0.0	0.0	0.0
	53	0.0	0.0	0.0
	54	0.0	0.0	0.0
	55	0.0	0.0	0.0
	56	0.0	0.0	0.0
	57	0.0	0.0	0.0
	58	0.0	0.0	0.0
	59	0.0	0.0	0.0
	60	0.0	0.0	0.0
	61	0.0	0.0	0.0
	62	0.0	0.0	0.0
	63	0.0	0.0	0.0
	64	0.0	0.0	0.0
	65	0.0	0.0	0.0
	66	0.0	0.0	0.0
	67	0.0	0.0	0.0
	68	0.0	0.0	0.0
	69	0.0	0.0	0.0
	70	0.0	0.0	0.0
	71	0.0	0.0	0.0
	72	0.0	0.0	0.0
	73	0.0	0.0	0.0
	74	0.0	0.0	0.0
	75	0.0	0.0	0.0
	76	0.0	0.0	0.0
	77	0.0	0.0	0.0
	78	0.0	0.0	0.0
	79	0.0	0.0	0.0
	80	0.0	0.0	0.0
	81	0.0	0.0	0.0
	82	0.0	0.0	0.0
	83	0.0	0.0	0.0
	84	0.0	0.0	0.0
	85	0.0	0.0	0.0
	86	0.0	0.0	0.0
	87	0.0	0.0	0.0
	88	0.0	0.0	0.0
	89	0.0	0.0	0.0
	90	0.0	0.0	0.0
	91	0.0	0.0	0.0
	92	0.0	0.0	0.0
	93	0.0	0.0	0.0
	94	0.0	0.0	0.0
	95	0.0	0.0	0.0
	96	0.0	0.0	0.0
	97	0.0	0.0	0.0
	98	0.0	0.0	0.0
	99	0.0	0.0	0.0
	100	0.0	0.0	0.0
	101	0.0	0.0	0.0
	102	0.0	0.0	0.0
	103	0.0	0.0	0.0
	104	0.0	0.0	0.0
	105	0.0	0.0	0.0
	106	0.0	0.0	0.0
	107	0.0	0.0	0.0
	108	0.0	0.0	0.0
	109	0.0	0.0	0.0
	110	0.0	0.0	0.0
	111	0.0	0.0	0.0
	112	0.0	0.0	0.0
	113	0.0	0.0	0.0
	114	0.0	0.0	0.0
	115	0.0	0.0	0.0
	116	0.0	0.0	0.0
	117	0.0	0.0	0.0
	118	0.0	0.0	0.0
	119	0.0	0.0	0.0
	120	0.0	0.0	0.0
	121	0.0	0.0	0.0
	122	0.0	0.0	0.0
	123	0.0	0.0	0.0
	124	0.0	0.0	0.0
	125	0.0	0.0	0.0
	126	0.0	0.0	0.0
	127	0.0	0.0	0.0
	128	0.0	0.0	0.0
	129	0.0	0.0	0.0
	130	0.0	0.0	0.0
	131	0.0	0.0	0.0
	132	0.0	0.0	0.0
	133	0.0	0.0	0.0
	134	0.0	0.0	0.0
	135	0.0	0.0	0.0
	136	0.0	0.0	0.0
	137	0.0	0.0	0.0
	138	0.0	0.0	0.0
	139	0.0	0.0	0.0
	140	0.0	0.0	0.0
	141	0.0	0.0	0.0
	142	0.0	0.0	0.0
	143	0.0	0.0	0.0
	144	0.0	0.0	0.0
	145	0.0	0.0	0.0
	146	0.0	0.0	0.0
	147	0.0	0.0	0.0
	148	0.0	0.0	0.0
	149	0.0	0.0	0.0
	150	0.0	0.0	0.0
	151	0.0	0.0	0.0
	152	0.0	0.0	0.0
	153	0.0	0.0	0.0
	154	0.0	0.0	0.0
	155	0.0	0.0	0.0
	156	0.0	0.0	0.0
	157	0.0	0.0	0.0
	158	0.0	0.0	0.0
	159	0.0	0.0	0.0
	160	0.0	0.0	0.0
	161	0.0	0.0	0.0
	162	0.0	0.0	0.0
	163	0.0	0.0	0.0
	164	0.0	0.0	0.0
	165	0.0	0.0	0.0
	166	0.0	0.0	0.0
	167	0.0	0.0	0.0
	168	0.0	0.0	0.0
	169	0.0	0.0	0.0
	170	0.0	0.0	0.0
	171	0.0	0.0	0.0
	172	0.0	0.0	0.0
	173	0.0	0.0	0.0
	174	0.0	0.0	0.0
	175	0.0	0.0	0.0
	176	0.0	0.0	0.0
	177	0.0	0.0	0.0
	178	0.0	0.0	0.0
	179	0.0	0.0	0.0
	180	0.0	0.0	0.0
	181	0.0	0.0	0.0
	182	0.0	0.0	0.0
	183	0.0	0.0	0.0
	184	0.0	0.0	0.0
	185	0.0	0.0	0.0
	186	0.0	0.0	0.0
	187	0.0	0.0	0.0
	188	0.0	0.0	0.0
	189	0.0	0.0	0.0
	190	0.0	0.0	0.0
	191	0.0	0.0	0.0
	192	0.0	0.0	0.0
	193	0.0	0.0	0.0
	194	0.0	0.0	0.0
	195	0.0	0.0	0.0
	196	0.0	0.0	0.0
	197	0.0	0.0	0.0
	198	0.0	0.0	0.0
	199	0.0	0.0	0.0
	200	0.0	0.0	0.0
	201	0.0	0.0	0.0
	202	0.0	0.0	0.0
	203	0.0	0.0	0.0
	204	0.0	0.0	0.0
	205	0.0	0.0	0.0
	206	0.0	0.0	0.0
	207	0.0	0.0	0.0
	208	0.0	0.0	0.0
	209	0.0	0.0	0.0
	210	0.0	0.0	0.0
	211	0.0	0.0	0.0
	212	0.0	0.0	0.0
	213	0.0	0.0	0.0
	214	0.0	0.0	0.0
	215	0.0	0.0	0.0
	216	0.0	0.0	0.0
	217	0.0	0.0	0.0
	218	0.0	0.0	0.0
	219	0.0	0.0	0.0
	220	0.0	0.0	0.0
	221	0.0	0.0	0.0
	222	0.0	0.0	0.0
	223	0.0	0.0	0.0
	224	0.0	0.0	0.0
	225	0.0	0.0	0.0
	226	0.0	0.0	0.0
	227	0.0	0.0	0.0
	228	0.0	0.0	0.0
	229	0.0	0.0	0.0
	230	0.0	0.0	0.0
	231	0.0	0.0	0.0
	232	0.0	0.0	0.0
	233	0.0	0.0	0.0
	234	0.0	0.0	0.0
	235	0.0	0.0	0.0
	236	0.0	0.0	0.0
	237	0.0	0.0	0.0
	238	0.0	0.0	0.0
	239	0.0	0.0	0.0
	240	0.0	0.0	0.0
	241	0.0	0.0	0.0
	242	0.0	0.0	0.0
	243	0.0	0.0	0.0
	244	0.0	0.0	0.0
	245	0.0	0.0	0.0
	246	0.0	0.0	0.0
	247	0.0	0.0	0.0
	248	0.0	0.0	0.0
	249	0.0	0.0	0.0
	250	0.0	0.0	0.0
	251	0.0	0.0	0.0
	252	0.0	0.0	0.0
	253	0.0	0.0	0.0
	254	0.0	0.0	0.0
	255	0.0	0.0	0.0
	256	0.0	0.0	0.0
	257	0.0	0.0	0.0
	258	0.0	0.0	0.0
	259	0.0	0.0	0.0
	260	0.0	0.0	0.0
	261	0.0	0.0	0.0
	262	0.0	0.0	0.0
	263	0.0	0.0	0.0
	264	0.0	0.0	0.0
	265	0.0	0.0	0.0
	266	0.0	0.0	0.0
	267	0.0	0.0	0.0
	268	0.0	0.0	0.0
	269	0.0	0.0	0.0
	270	0.0	0.0	0.0
	271	0.0	0.0	0.0
	272	0.0	0.0	0.0
	273	0.0	0.0	0.0
	274	0.0	0.0	0.0
	275	0.0	0.0	0.0
	276	0.0	0.0	0.0
	277	0.0	0.0	0.0
	278	0.0	0.0	0.0
	279	0.0	0.0	0.0
	280	0.0	0.0	0.0
	281	0.0	0.0	0.0
	282	0.0	0.0	0.0
	283	0.0	0.0	0.0
	284	0.0	0.0	0.0
	285	0.0	0.0	0.0
	286	0.0	0.0	0.0
	287	0.0	0.0	0.0
	288	0.0	0.0	0.0
	289	0.0	0.0	0.0
	290	0.0	0.0	0.0
	291	0.0	0.0	0.0
	292	0.0	0.0	0.0
	293	0.0	0.0	0.0
	294	0.0	0.0	0.0
	295	0.0	0.0	0.0
	296	0.0	0.0	0.0
	297	0.0	0.0	0.0
	298	0.0	0.0	0.0
	299	0.0	0.0	0.0
	300	0.0	0.0	0.0
	301	0.0	0.0	0.0
	302	0.0	0.0	0.0
	303	0.0	0.0	0.0
	304	0.0	0.0	0.0
	305	0.0	0.0	0.0
	306	0.0	0.0	0.0
	307	0.0	0.0	0.0
	308	0.0	0.0	0.0
	309	0.0	0.0	0.0
	310	0.0	0.0	0.0
	311	0.0	0.0	0.0
	312	0.0	0.0	0.0
	313	0.0	0.0	0.0
	314	0.0	0.0	0.0
	315	0.0	0.0	0.0
	316	0.0	0.0	0.0
	317	0.0	0.0	0.0
	318	0.0	0.0	0.0
	319	0.0	0.0	0.0
	320	0.0	0.0	0.0
	321	0.0	0.0	0.0
	322	0.0	0.0	0.0
	323	0.0	0.0	0.0
	324	0.0	0.0	0.0
	325	0.0	0.0	0.0
	326	0.0	0.0	0.0
	327	0.0	0.0	0.0
	328	0.0	0.0	0.0
	329	0.0	0.0	0.0
	330	0.0	0.0	0.0
	331	0.0	0.0	0.0
	332	0.0	0.0	0.0
	333	0.0	0.0	0.0
	334	0.0	0.0	0.0
	335	0.0	0.0	0.0
	336	0.0	0.0	0.0
	337	0.0	0.0	0.0
	338	0.0	0.0	0.0
	339	0.0	0.0	0.0
	340	0.0	0.0	0.0
	341	0.0	0.0	0.0
	342	0.0	0.0	0.0
	343	0.0	0.0	0.0
	344	0.0	0.0	0.0
	345	0.0	0.0	0.0
	346	0.0	0.0	0.0
	347	0.0	0.0	0.0
	348	0.0	0.0	0.0
	349	0.0	0.0	0.0
	350	0.0	0.0	0.0
	351	0.0	0.0	0.0
	352	0.0	0.0	0.0
	353	0.0	0.0	0.0
	354	0.0	0.0	0.0
	355	0.0	0.0	0.0
	356	0.0	0.0	0.0
	357	0.0	0.0	0.0
	358	0.0	0.0	0.0
	359	0.0	0.0	0.0
	360	0.0	0.0	0.0
	361	0.0	0.0	0.0
	362	0.0	0.0	0.0
	363	0.0	0.0	0.0
	364	0.0	0.0	0.0
	365	0.0	0.0	0.0

