ITEM: TIMESTEP
16500
ITEM: NUMBER OF ATOMS
3430
ITEM: BOX BOUNDS pp pp pp
2.4673182052493203e-01 4.1153268179475063e+01
2.4673182052493203e-01 4.1153268179475063e+01
2.4673182052493203e-01 4.1153268179475063e+01
ITEM: ATOMS id type x y z 
1811 2 3.15061 2.00497 3.00769 
901 2 0.860411 2.21231 1.53299 
101 2 3.4247 1.9032 0.69198 
1901 2 5.57153 1.76752 2.48719 
1091 2 7.54967 2.89279 0.460536 
2783 2 9.65168 2.68952 2.85254 
201 2 9.94335 1.51257 0.765675 
291 2 7.64599 0.824506 1.69126 
212 2 7.29311 3.60225 2.82284 
1991 2 11.6753 1.18584 2.74944 
2864 2 13.358 2.90395 1.9631 
1271 2 15.7191 1.66422 1.65381 
1272 2 16.8405 2.94423 3.6048 
2081 2 18.4392 0.986275 2.81573 
401 2 19.4791 0.821419 0.39592 
2945 2 19.4995 3.2155 3.14964 
411 2 20.3613 3.05042 0.443703 
2954 2 17.873 2.94045 1.28509 
2171 2 21.0862 1.48011 2.2312 
1361 2 22.7941 2.30277 0.588776 
3026 2 23.9126 1.84478 2.77568 
1451 2 26.3455 0.831108 1.88331 
1460 2 25.6664 2.74018 0.503622 
2270 2 25.9626 3.40398 3.00697 
3107 2 28.0875 1.94379 3.08256 
1541 2 30.0749 2.40453 1.85388 
3188 2 32.487 1.95041 2.88661 
1631 2 33.9113 2.74632 1.13281 
701 2 33.8213 41.1411 1.48271 
801 2 36.1592 1.598 1.10099 
3269 2 35.8368 3.19989 2.8393 
2531 2 37.6244 1.36519 3.31985 
2441 2 34.9149 1.09333 3.53467 
1721 2 38.9381 2.2042 1.28562 
3350 2 39.8478 2.52339 3.4743 
1001 2 2.75896 4.13785 1.72356 
2621 2 0.957671 3.893 3.44093 
11 2 1.07916 5.94489 2.05619 
1100 2 5.23218 3.68237 1.06103 
2702 2 4.80157 3.8799 3.51332 
111 2 4.65232 5.99274 2.05678 
1910 2 7.01526 5.45721 1.35664 
211 2 9.34414 4.41952 1.04876 
2792 2 8.82827 6.91734 1.47525 
2793 2 9.11809 5.29205 3.33379 
2000 2 11.3928 4.38518 2.42897 
1192 2 11.103 6.8826 2.64729 
311 2 13.6357 4.89568 0.423305 
2873 2 13.4787 5.71426 2.79868 
1191 2 11.317 5.60245 0.361504 
2090 2 15.5326 4.17477 1.83133 
1281 2 15.4423 6.75119 1.38494 
1282 2 16.6437 5.56973 3.50888 
1371 2 19.8838 5.40513 0.544302 
422 2 19.3132 5.65697 2.95174 
1290 2 17.5407 5.37842 0.985383 
2180 2 21.7135 3.91486 2.37839 
3035 2 23.8265 6.55266 1.25395 
1372 2 21.5328 6.35063 2.00554 
511 2 24.039 4.18669 1.76701 
1462 2 23.2804 6.01791 3.65439 
1461 2 26.1087 5.39237 1.25475 
3116 2 27.5016 5.35247 3.47183 
622 2 25.5242 6.95775 3.07216 
611 2 27.9691 3.90205 1.55162 
1551 2 29.7303 5.62812 1.60065 
2360 2 29.6296 4.04221 3.55315 
711 2 31.7786 4.21773 1.44224 
2450 2 33.6389 4.36195 2.99593 
1641 2 33.9039 5.3366 0.487413 
3197 2 31.5007 5.78125 3.38555 
1642 2 33.7727 6.78807 3.03032 
721 2 32.0477 6.86746 1.17773 
811 2 35.8161 5.39626 1.92757 
820 2 37.8108 4.33504 41.1264 
911 2 40.2101 4.20007 1.63423 
2540 2 38.0553 4.23555 2.80079 
1731 2 37.9331 6.52096 1.5123 
3359 2 39.7705 6.12753 3.1201 
21 2 0.763004 9.72806 1.41427 
1011 2 2.74692 7.70983 2.26102 
1829 2 2.45952 10.0304 3.14842 
2630 2 0.408827 8.03519 3.22174 
130 2 2.91123 9.22542 0.382102 
121 2 4.66117 9.45596 2.10686 
1101 2 6.14605 7.7589 1.16224 
1919 2 7.35948 7.99953 3.27212 
222 2 9.65697 9.00001 2.53789 
2801 2 7.37153 10.1305 2.05287 
2009 2 10.6812 8.1209 0.424635 
321 2 12.8718 7.26358 1.00079 
2882 2 12.1487 9.52521 1.87905 
322 2 14.034 8.22156 2.93546 
2099 2 16.2137 9.24336 2.40094 
330 2 14.4495 9.00048 0.577141 
2107 2 17.0817 8.72409 0.248925 
421 2 17.9158 7.48098 2.20981 
2189 2 20.3217 8.28537 2.61704 
2963 2 18.6388 9.96841 1.93772 
430 2 19.4784 7.91321 0.290147 
521 2 22.0962 8.3641 0.569803 
522 2 23.3396 8.42028 2.78203 
3044 2 23.8503 10.0861 1.05178 
1381 2 21.6449 10.3154 2.26357 
2279 2 25.4511 8.16346 0.574579 
1472 2 25.8201 9.40343 2.58798 
3125 2 28.1234 10.0411 1.91903 
621 2 27.6133 7.26572 1.73255 
2369 2 29.8768 8.20206 1.46315 
1552 2 29.3871 7.01105 3.6024 
3206 2 32.2683 9.32521 1.00634 
722 2 31.7195 8.2884 3.20116 
2460 2 34.0882 9.33334 2.75501 
2459 2 34.4196 7.74858 0.786829 
3278 2 36.0844 7.62716 2.98857 
822 2 36.8119 9.97414 2.73899 
1651 2 34.8464 10.3316 0.604523 
821 2 36.6945 8.60404 0.734577 
921 2 39.7829 8.11659 1.08491 
2549 2 38.59 8.33521 3.18139 
1021 2 3.06271 11.6393 1.31218 
2639 2 0.855087 12.0195 2.40037 
31 2 1.76761 13.6162 0.623572 
1838 2 2.52173 13.7408 2.93675 
1111 2 5.50614 11.7128 1.73217 
232 2 6.95614 12.6167 3.46401 
1201 2 10.2312 10.5636 0.688756 
231 2 8.37749 12.1802 1.15728 
1202 2 9.19345 11.3746 3.26857 
2018 2 11.0357 12.5322 2.02052 
331 2 12.8016 11.5188 0.433706 
332 2 13.3072 13.068 2.54218 
1291 2 14.3018 10.8328 2.32736 
2108 2 15.4368 13.4572 1.44048 
1300 2 15.656 11.0053 0.313621 
1292 2 16.8154 11.6501 2.40113 
431 2 19.8193 12.0686 1.26541 
2198 2 21.8154 12.7694 2.46146 
1382 2 23.9568 10.9002 3.30797 
532 2 24.0208 12.5605 1.57749 
2288 2 26.3517 11.927 2.21864 
632 2 28.8422 12.4063 2.55025 
2378 2 30.6548 12.6603 0.923186 
1562 2 30.5662 10.5121 2.41283 
631 2 28.1596 12.0442 0.256572 
732 2 32.7825 11.6646 1.86954 
2468 2 34.6509 13.01 0.84317 
3287 2 36.9075 11.6815 0.826548 
1652 2 35.0746 11.6154 2.80381 
832 2 35.8307 13.7992 3.48535 
1742 2 37.6684 12.3104 3.0103 
3368 2 39.381 10.6687 2.11361 
1741 2 39.165 13.0289 1.1719 
2648 2 1.40595 15.9309 1.31684 
2729 2 3.46548 16.1009 2.63164 
131 2 4.49512 13.9585 1.5873 
1121 2 5.7483 16.279 1.6099 
1928 2 6.95885 14.1839 1.58773 
1929 2 5.55199 14.802 3.62702 
2810 2 7.91927 16.3697 0.298196 
1212 2 9.12122 13.9397 2.80632 
1211 2 9.97021 15.0424 0.787608 
1122 2 7.98687 16.21 2.76545 
2891 2 11.5339 15.0358 2.56582 
340 2 12.6404 13.9935 0.395567 
1220 2 12.2879 16.3359 0.338665 
1302 2 13.9391 15.4779 2.4053 
2972 2 16.4385 15.8621 1.95525 
1391 2 18.9712 16.433 0.483775 
432 2 18.0396 13.9043 2.02907 
1392 2 20.3538 14.7819 1.9567 
3053 2 22.7909 15.1143 2.03712 
1482 2 25.1851 14.7017 1.96443 
2297 2 25.8393 17.1984 1.68632 
3134 2 27.5195 14.279 1.6049 
1571 2 28.5906 16.5174 0.732354 
1572 2 30.0245 14.7582 2.06634 
3215 2 32.5193 14.2138 1.53444 
741 2 32.988 16.6314 1.22078 
1661 2 34.808 15.3363 1.81766 
831 2 36.9363 14.2264 1.13371 
1662 2 36.449 16.1239 3.31321 
931 2 40.9096 14.2637 2.49157 
1751 2 39.4074 15.5633 0.917946 
2558 2 38.453 14.6723 3.03482 
3377 2 40.1302 16.5971 3.00273 
41 2 0.629816 18.2477 1.62204 
1041 2 2.22193 20.0873 0.738756 
1847 2 2.81207 18.5811 2.76293 
2657 2 0.820337 20.4368 2.84044 
141 2 4.41133 18.3138 1.0853 
2738 2 4.83905 19.9625 2.94897 
1937 2 6.82035 18.3968 2.07138 
242 2 8.90989 19.6007 2.46187 
2027 2 10.0723 17.3468 1.84037 
1222 2 11.2823 19.6101 2.37979 
342 2 12.4987 17.4746 2.51979 
350 2 12.4529 18.7361 0.377351 
1312 2 13.6907 19.7679 2.32867 
341 2 14.8962 17.7966 1.40058 
2117 2 16.0538 20.297 2.11928 
441 2 19.5688 18.9473 0.342406 
442 2 17.7135 17.9617 1.96384 
2981 2 18.5521 20.4672 1.98808 
2207 2 20.8061 17.4053 1.87883 
1402 2 21.0248 20.1426 1.93825 
3062 2 23.5042 20.3285 1.91382 
542 2 23.3525 17.7999 2.19791 
550 2 22.1438 18.7141 0.267881 
1492 2 25.9793 20.1292 1.93662 
641 2 29.4584 18.8956 0.268857 
642 2 27.8634 18.6099 1.99798 
2387 2 30.627 17.4237 1.9282 
1582 2 31.0883 19.878 2.15699 
742 2 33.3201 19.1402 1.7897 
2477 2 35.5302 18.0351 2.03286 
3305 2 37.3071 19.9356 2.2692 
1671 2 35.2454 20.2854 0.744004 
3296 2 37.9688 17.3209 1.89857 
2567 2 39.394 19.0512 0.921526 
942 2 39.3458 18.8563 3.40129 
51 2 2.03366 22.5116 0.869657 
1856 2 2.97275 21.6301 2.87229 
2666 2 0.399886 22.9503 2.63814 
151 2 4.42138 21.2788 0.898194 
1946 2 5.28079 22.6817 3.15424 
251 2 6.27417 22.8195 0.721495 
1141 2 4.01812 23.7261 1.39918 
1132 2 6.92529 21.0044 2.40842 
2819 2 8.37019 21.4572 0.461085 
252 2 7.94744 23.2755 2.46401 
2036 2 10.0621 21.8145 2.24822 
2900 2 12.73 21.4016 0.854473 
352 2 12.9146 23.8458 1.68782 
1230 2 10.9905 22.9308 41.151 
2126 2 14.9763 22.3673 1.24004 
460 2 17.2441 21.6608 0.280054 
1330 2 16.8533 23.9855 0.285501 
452 2 18.7537 23.2086 1.64458 
2216 2 21.3702 22.8473 1.78138 
552 2 23.8971 22.9547 1.7753 
2306 2 26.7268 22.5342 1.37202 
3143 2 28.824 20.9777 1.94909 
652 2 28.84 23.7611 2.01072 
2396 2 30.9046 22.5247 1.78011 
3224 2 33.3274 21.6906 1.69711 
751 2 34.4319 23.7763 0.582585 
1672 2 35.2758 20.8578 3.2156 
2486 2 36.2383 22.3064 1.27298 
852 2 37.2984 22.7174 3.34159 
2487 2 34.8673 23.4912 3.00491 
1761 2 38.3325 21.3621 0.594705 
2576 2 38.9923 23.4418 1.58657 
3386 2 39.3673 21.2425 2.82626 
960 2 40.7279 21.1834 0.765684 
61 2 0.612333 27.2349 1.05621 
1051 2 1.95991 25.1421 1.50294 
1865 2 3.04517 27.4582 1.76729 
62 2 1.58139 26.5553 3.54734 
2747 2 4.10051 25.9122 3.17843 
161 2 4.38456 25.8947 0.416419 
1142 2 6.0547 24.9449 2.21472 
1955 2 5.78949 27.5133 1.67401 
1231 2 10.2799 24.2632 2.14924 
2828 2 8.32494 25.8792 2.01232 
2909 2 13.7994 26.4193 1.26011 
1232 2 11.6378 26.1391 2.14408 
1322 2 15.3882 24.7686 2.01195 
2135 2 15.9815 27.254 2.148 
1411 2 19.9064 26.7353 0.522086 
2990 2 17.9138 25.6509 1.64624 
1412 2 20.3607 25.085 2.24513 
2225 2 21.4204 27.3797 2.25677 
3071 2 22.7746 25.3769 1.49016 
1502 2 25.2283 25.9222 1.81576 
3152 2 27.6547 25.9373 1.81468 
1592 2 30.4068 25.9032 1.71521 
752 2 32.569 24.3108 2.10049 
762 2 32.6526 26.7992 1.93589 
1682 2 34.829 25.8614 2.06028 
851 2 36.8715 24.6494 1.65714 
861 2 37.5727 26.9012 2.09763 
3395 2 40.7205 25.2884 2.59362 
1771 2 39.3157 25.8247 0.77853 
1772 2 38.6654 24.8953 3.63256 
1061 2 2.12861 29.2575 0.359884 
3404 2 1.35309 28.9698 2.81837 
1062 2 3.98957 29.5426 2.44258 
2756 2 4.51122 30.8393 0.35452 
1152 2 6.18064 30.4561 2.25534 
262 2 7.85406 28.7081 2.4028 
2045 2 10.0538 27.9557 1.66004 
261 2 8.89626 29.8839 0.525862 
1242 2 10.5995 30.1852 2.52286 
362 2 12.6076 28.6127 2.20237 
1241 2 11.4332 29.9197 0.28607 
1332 2 15.4105 29.6633 2.19206 
2999 2 17.7919 30.5105 1.46447 
462 2 18.3064 28.0332 2.0158 
1422 2 20.2758 29.589 2.10995 
3080 2 22.7271 30.4479 1.23758 
562 2 23.7232 28.0918 1.92492 
2315 2 26.4916 28.1661 1.19908 
1512 2 25.1048 30.0691 2.15233 
662 2 28.9625 28.0435 2.22485 
3161 2 27.7361 30.1846 2.29762 
1602 2 30.3444 30.6363 1.731 
2405 2 31.0593 28.3729 0.895385 
1692 2 33.7292 29.0629 1.89288 
761 2 35.5391 27.7417 0.794561 
2495 2 35.8483 28.062 3.33786 
1691 2 36.1268 29.9754 1.54879 
3323 2 38.0434 29.2849 2.73372 
961 2 39.1838 28.3351 0.63396 
2585 2 40.0266 27.7129 2.85337 
1781 2 40.7155 30.1262 1.2239 
1790 2 38.2808 30.7274 0.477606 
2675 2 2.22028 31.1397 1.93439 
971 2 0.251871 32.5844 1.58336 
171 2 4.24469 32.5686 1.94168 
1964 2 6.52463 32.9118 2.53377 
1151 2 6.90966 31.7578 0.315603 
2837 2 8.48426 31.4672 2.33439 
271 2 7.76711 33.9768 0.474088 
272 2 8.81755 34.0056 2.62397 
2918 2 13.286 31.0192 1.52115 
2054 2 10.7451 32.5756 2.23918 
371 2 13.1022 33.4833 2.07431 
2144 2 16.2661 32.659 1.80279 
2234 2 20.2736 33.9094 0.782142 
472 2 18.8185 32.6859 2.42222 
1421 2 20.3254 31.102 0.310789 
572 2 21.3158 32.252 2.28888 
3089 2 22.931 34.1639 1.63504 
2324 2 24.449 32.2545 1.22629 
672 2 26.7222 32.4483 2.1962 
671 2 28.3771 31.8622 0.52284 
2414 2 29.6888 33.1018 2.18907 
772 2 32.0082 32.8008 1.20034 
3251 2 33.587 33.9868 2.74985 
2504 2 34.2391 31.5965 1.5652 
871 2 36.7291 32.2302 2.11298 
1701 2 35.0965 33.8392 0.940149 
2594 2 39.2194 31.4927 2.65505 
980 2 38.3948 33.1335 0.651171 
1792 2 38.6383 33.6967 3.38798 
1874 2 1.84466 34.4524 1.8452 
2684 2 0.535994 36.3632 2.70461 
81 2 2.12518 36.6274 0.696088 
2765 2 4.55311 34.4006 3.53862 
1883 2 4.09452 36.5894 2.38364 
1161 2 6.1544 35.2363 1.91487 
1071 2 3.97977 34.7814 0.763409 
181 2 6.09951 37.6063 0.824763 
1973 2 7.12715 37.1005 3.22204 
290 2 8.43458 36.2025 1.30401 
1251 2 10.1667 34.6192 0.488722 
1252 2 11.1817 34.9703 2.65434 
2927 2 13.4025 35.9986 2.37259 
2063 2 11.4628 37.2491 3.58222 
1261 2 11.5687 36.8612 1.0839 
372 2 14.8574 34.3741 3.5424 
1342 2 17.2528 34.5709 3.36613 
1341 2 15.2048 34.8648 1.15611 
381 2 14.8768 37.3708 0.585266 
2153 2 15.7047 36.6878 2.84118 
471 2 17.9051 34.6882 1.12624 
3008 2 19.6749 35.2096 2.74192 
481 2 17.4064 37.7054 1.28089 
1431 2 19.5355 36.5014 0.394682 
482 2 18.1055 36.8784 3.53267 
581 2 24.0859 36.4431 2.06447 
1432 2 21.6899 36.1417 1.62049 
1522 2 25.4622 34.5432 1.42452 
2333 2 26.6682 36.6467 2.35496 
1521 2 27.8382 34.363 1.06678 
3170 2 28.8601 35.6174 2.86566 
1611 2 30.469 34.9467 0.751888 
681 2 28.6832 36.5686 0.389842 
2423 2 30.7169 37.107 2.2436 
1612 2 31.3398 34.9041 3.01158 
771 2 32.932 35.0136 0.380601 
781 2 33.167 36.6688 2.06444 
3332 2 37.156 34.8893 1.83954 
2513 2 35.2393 36.0006 3.10465 
881 2 35.4312 36.3116 0.675543 
1791 2 39.9918 34.7534 1.44032 
981 2 40.5694 36.9164 0.415173 
2603 2 38.9788 36.7373 2.51984 
990 2 38.0885 36.4457 0.261581 
1 2 1.96884 40.8525 1.95711 
91 2 0.616248 39.2528 0.717741 
2693 2 2.1316 38.3084 2.72528 
1081 2 3.68971 38.5574 0.831766 
191 2 4.85832 40.5366 1.57303 
2774 2 5.11934 38.6098 3.09867 
281 2 9.70719 38.1834 2.06152 
1171 2 7.4614 39.3151 2.35006 
2855 2 9.47497 40.7481 3.01084 
300 2 9.18592 40.0757 0.532993 
2072 2 11.4249 39.9502 1.56669 
2936 2 13.2418 38.4491 2.32825 
301 2 13.7367 41.0824 1.88686 
1351 2 15.5172 39.371 1.92762 
2243 2 20.0255 37.7522 2.32004 
491 2 17.2853 40.7203 0.933719 
2252 2 20.1939 40.1009 2.36579 
3017 2 18.0013 39.355 3.17078 
501 2 24.133 41.0673 1.06061 
3098 2 22.5713 38.6548 2.59237 
591 2 21.7949 40.6339 0.680036 
1450 2 21.6842 38.1574 0.326974 
2261 2 24.6709 40.4433 3.3283 
1531 2 24.4647 38.6086 0.92509 
2342 2 26.4169 39.2568 2.1364 
691 2 28.7093 40.8026 1.39684 
1621 2 30.2471 39.0787 0.699269 
3179 2 28.5915 38.23 2.3264 
692 2 27.9817 40.3978 3.60261 
2432 2 30.3279 39.5868 3.50404 
791 2 31.2596 41.1078 1.66335 
3260 2 32.3505 38.9442 2.07387 
1711 2 34.6256 38.6402 1.24567 
2522 2 36.0461 40.2754 2.30222 
3341 2 36.7465 37.8423 2.54982 
991 2 40.2371 41.0618 1.91424 
891 2 37.9299 40.8704 0.80528 
1801 2 39.0348 38.7476 1.01887 
2612 2 38.2673 39.7986 3.11335 
3422 2 40.5151 38.7115 3.1454 
2 2 1.09101 1.37301 3.94547 
1002 2 2.84607 3.44449 4.90472 
1812 2 2.51417 1.24821 6.03323 
2622 2 0.371294 2.92435 5.70643 
102 2 4.72243 1.63672 4.83048 
2703 2 4.56311 3.23747 6.74968 
1902 2 6.54757 1.24754 6.28557 
1911 2 6.57573 3.55789 5.26884 
1092 2 7.74998 1.63991 4.09695 
202 2 10.1809 1.30882 4.83904 
2784 2 9.11391 3.56885 5.10673 
213 2 8.86799 1.76184 6.92159 
1182 2 12.0368 3.06799 4.31029 
1992 2 12.4397 0.723957 5.41084 
2001 2 11.2329 2.71866 6.62409 
2865 2 13.754 2.79107 6.11178 
302 2 14.234 1.57557 3.90554 
2082 2 16.0476 1.67515 5.68417 
402 2 18.5337 2.03384 5.14368 
2172 2 20.4899 1.41826 6.7351 
502 2 23.7229 1.35179 5.27383 
1362 2 21.4404 2.16864 4.4897 
3027 2 22.5199 3.37912 6.28806 
1452 2 26.059 1.33151 4.39829 
2271 2 25.4676 3.49456 5.47401 
612 2 27.8614 3.31826 5.07845 
2351 2 30.3132 1.20695 3.93878 
602 2 28.2776 0.907325 5.49928 
1542 2 30.1111 2.55737 6.10058 
702 2 32.5007 1.42922 5.42961 
3189 2 32.3826 3.60618 6.96619 
712 2 31.7656 3.54345 4.51781 
1632 2 34.3703 3.06042 4.92714 
802 2 36.5208 1.36199 5.54957 
902 2 38.9276 2.04987 5.68701 
993 2 40.9711 0.505754 6.62072 
1820 2 2.92544 5.64124 3.77924 
12 2 0.662224 5.8977 4.7964 
1821 2 2.21386 4.03739 7.06928 
2712 2 2.84145 6.35556 6.73048 
1102 2 6.52383 5.73726 3.82796 
112 2 4.67105 5.38112 5.49932 
2091 2 16.1532 4.06782 5.86888 
312 2 14.5126 3.96506 4.0548 
412 2 18.4086 4.50243 4.9991 
2181 2 20.0334 3.78481 6.77914 
512 2 23.444 3.72513 4.1629 
2955 2 21.0404 4.71352 4.61242 
3198 2 33.1165 5.41841 5.25862 
1722 2 37.0294 3.66543 4.99481 
812 2 35.4124 5.43747 4.40244 
3279 2 37.0082 5.37099 6.7387 
2451 2 34.7541 4.4952 6.84451 
1732 2 37.669 6.2872 4.38053 
912 2 39.4304 4.4534 4.98403 
3360 2 39.1412 6.45223 6.39556 
13 2 40.9848 4.97197 7.02803 
2631 2 0.61054 7.34707 6.70952 
1012 2 2.36553 7.8228 4.73195 
1830 2 1.10493 9.5444 5.87476 
2711 2 4.80598 7.62533 3.90589 
122 2 3.92163 9.7094 5.01111 
1112 2 5.97225 10.2969 3.9715 
22 2 40.9919 10.3585 3.90383 
2550 2 39.8607 8.4332 5.27483 
922 2 38.613 10.4138 4.5317 
1022 2 2.27203 11.5315 5.17119 
32 2 1.14247 13.5499 4.92486 
1839 2 3.0088 13.3898 6.78955 
2720 2 4.35772 12.3501 3.9006 
2721 2 3.91403 11.1181 7.07966 
3288 2 36.4273 11.5365 4.89933 
2469 2 37.7796 13.66 5.20823 
2640 2 40.6066 11.5518 6.07146 
932 2 39.8478 12.5653 3.98279 
3369 2 38.2293 11.4582 6.66361 
1032 2 1.30546 15.8193 3.91819 
2649 2 1.61963 15.6524 6.54381 
132 2 3.45856 14.9175 4.91134 
1752 2 38.3248 16.4366 4.75705 
2559 2 40.037 14.7396 5.12445 
3378 2 40.6858 16.994 5.63763 
2730 2 2.95629 17.3507 4.98791 
42 2 0.800074 18.2916 4.03138 
1042 2 2.36204 20.0374 4.73901 
1848 2 1.5059 18.6049 6.493 
2739 2 3.36564 20.502 7.02602 
1938 2 4.56278 19.2984 5.25096 
142 2 5.13432 17.4462 3.70986 
842 2 36.9262 18.4566 4.15856 
2568 2 38.8772 18.5214 5.7759 
3387 2 40.5288 20.3142 5.05481 
52 2 1.29603 22.2522 4.74403 
1857 2 2.37352 23.8159 6.35543 
2658 2 1.05098 21.0948 6.80511 
1052 2 2.68724 24.035 3.69425 
152 2 3.78468 22.0931 5.14042 
3315 2 37.5537 23.2149 5.71262 
1762 2 37.9157 20.7324 4.77235 
952 2 39.7193 22.7922 4.68699 
2577 2 39.145 21.542 6.82095 
953 2 40.9502 23.2435 6.94464 
2748 2 2.15347 26.3939 5.92454 
2667 2 0.474547 24.6528 4.87444 
3314 2 36.3617 25.4173 4.03618 
3396 2 39.1206 25.1412 6.02961 
962 2 40.6014 27.0036 5.09636 
862 2 38.1558 27.2967 4.48586 
2676 2 1.03829 29.0967 5.19736 
2757 2 2.88791 30.6432 4.53906 
1866 2 2.91483 28.6932 6.73571 
162 2 3.28715 28.0936 4.3704 
3324 2 37.6814 29.4677 5.7199 
1782 2 39.714 29.59 4.42748 
3405 2 39.9399 29.9447 6.86657 
2586 2 38.9758 27.5716 6.8381 
72 2 0.569766 31.1939 3.72059 
172 2 2.51013 33.0115 3.67927 
1875 2 1.33233 32.4937 5.71799 
1702 2 35.8826 33.7179 3.76942 
872 2 37.4358 31.4567 4.34131 
2505 2 37.5411 33.5766 5.63225 
3413 2 41.0716 33.9103 3.73369 
972 2 39.7196 32.1291 5.13288 
2595 2 38.1525 31.6276 6.98384 
3414 2 39.8001 34.3091 6.36044 
1072 2 2.52698 35.7522 3.98433 
82 2 0.972507 37.4557 5.02123 
2766 2 3.37313 35.8747 6.38493 
2685 2 1.09604 34.9973 5.77156 
182 2 5.25972 36.4494 4.74736 
1162 2 7.06683 34.7384 4.16684 
2846 2 9.29637 36.1423 3.78888 
1974 2 7.6603 36.5215 5.77251 
382 2 13.6538 37.5825 4.66415 
682 2 29.6673 37.3495 4.50355 
782 2 33.2165 35.7414 4.41995 
3252 2 33.7065 37.2733 6.15811 
882 2 37.4518 35.6896 4.1018 
2514 2 35.9852 37.2654 5.27242 
3333 2 37.791 35.862 6.41539 
982 2 39.9014 35.9923 4.68082 
2604 2 39.8447 37.1142 6.9519 
1892 2 3.59138 40.5107 3.75273 
92 2 1.35926 39.9703 4.46729 
1082 2 3.43323 38.0413 4.82906 
1893 2 2.27442 39.2781 6.56566 
2775 2 4.83547 37.7803 7.0173 
1982 2 6.15006 40.7256 3.91801 
192 2 4.60941 40.0627 5.92472 
1172 2 6.56629 38.6052 5.17934 
282 2 9.08026 38.5387 4.36491 
292 2 8.24722 40.5775 5.36799 
2856 2 8.75509 38.4395 6.81125 
2064 2 11.0649 37.8113 5.94117 
2073 2 10.4803 40.1837 6.17661 
1262 2 11.4868 39.6616 4.04607 
392 2 13.8963 40.0538 4.08319 
2937 2 13.0576 39.3549 6.408 
2162 2 16.2845 41.0962 3.68082 
1352 2 15.9061 38.6115 4.24201 
2163 2 15.3816 40.2641 6.02267 
2154 2 15.4197 37.9166 6.56962 
2253 2 19.9607 41.0721 4.61531 
3018 2 17.8192 38.1218 5.64785 
492 2 17.7667 40.6694 5.73748 
1442 2 20.0964 38.6635 4.58691 
483 2 19.55 39.4561 6.95121 
592 2 22.3008 40.8193 3.73496 
3099 2 23.9131 39.6398 5.48184 
2244 2 21.7061 40.2328 6.14299 
582 2 24.8874 38.0809 3.72149 
1532 2 27.2663 37.9322 4.39044 
2343 2 26.3347 40.011 5.25357 
3180 2 28.7685 39.3242 5.78699 
2433 2 30.7968 40.6271 5.78775 
2424 2 30.9489 38.1111 6.53642 
1622 2 32.0647 37.9222 4.29241 
792 2 32.7744 40.5345 3.81994 
3261 2 32.8958 39.5227 6.14592 
1712 2 34.4183 38.4651 3.73839 
2523 2 34.5491 41.0611 5.7636 
892 2 36.334 39.6883 4.73189 
3342 2 37.6046 38.3132 7.00349 
1713 2 35.2411 39.119 6.99497 
992 2 39.9356 41.0865 4.30282 
1802 2 38.428 37.9687 4.72137 
2613 2 38.2529 40.51 5.87688 
3423 2 40.3301 39.1778 5.82473 
1003 2 2.8712 2.39872 8.63101 
2623 2 1.46547 1.54445 10.4943 
3351 2 0.423256 2.58083 8.11543 
1813 2 3.6744 0.501959 10.0167 
103 2 4.4882 0.868393 7.61002 
1093 2 5.30346 2.8049 9.0334 
203 2 6.81747 0.957186 8.67288 
2785 2 8.46289 1.37668 10.3807 
1183 2 11.1314 0.76216 7.97921 
313 2 12.9068 2.39103 8.77078 
2002 2 11.0199 1.73738 10.2644 
303 2 13.8756 0.677483 7.40251 
1273 2 15.2754 2.81616 8.03327 
2164 2 14.9555 0.839328 9.87968 
413 2 17.0993 3.07007 9.59017 
1353 2 16.3785 0.677437 7.9199 
493 2 18.7502 0.545707 8.09672 
403 2 17.523 0.791628 10.1736 
1363 2 19.5817 2.66602 9.0628 
2946 2 17.7888 2.78574 7.28268 
2173 2 22.407 1.37964 9.97591 
593 2 22.7644 1.12004 7.55486 
513 2 21.8767 3.21671 8.55658 
3036 2 23.9282 3.49297 9.84259 
2262 2 25.1518 0.377131 7.08937 
503 2 24.7136 1.20955 9.46884 
3108 2 26.9747 2.02389 7.18077 
2263 2 27.0826 1.0414 9.50209 
613 2 26.36 3.35359 9.15988 
1453 2 24.571 2.78255 7.55838 
2352 2 29.4409 0.559743 7.57983 
1543 2 29.8847 2.67133 8.64897 
603 2 29.3625 0.490324 9.94558 
703 2 31.7897 1.39865 7.76584 
713 2 33.3786 2.66638 9.31773 
2353 2 31.6749 0.586976 10.1044 
2442 2 34.4399 2.08239 7.21209 
1633 2 35.723 1.52754 9.29836 
3270 2 36.7448 2.89004 7.41935 
813 2 37.6167 3.0983 9.7853 
1723 2 39.8857 2.41337 10.1228 
2532 2 38.7483 1.42198 8.01552 
903 2 40.758 0.35841 9.17577 
1013 2 1.44648 6.04024 8.85189 
1822 2 1.69532 3.95876 10.1752 
113 2 3.75455 4.83882 8.77151 
2361 2 28.3474 4.01285 7.43211 
1643 2 35.4817 4.11822 9.21173 
2541 2 38.9411 3.83695 7.46384 
1733 2 37.915 5.43797 9.15301 
923 2 39.98 6.92095 8.64113 
913 2 40.317 4.64363 9.37748 
1920 2 3.02415 8.8098 7.09665 
23 2 1.17547 8.51 8.67388 
123 2 3.06053 9.92636 9.44247 
1103 2 3.46165 7.44148 9.01892 
823 2 40.0352 9.41433 7.61656 
2551 2 40.3186 8.49921 10.4126 
2641 2 0.702874 10.4945 9.95982 
1023 2 1.4967 11.0422 7.73786 
133 2 3.10253 12.4189 9.15477 
33 2 0.848406 12.9213 9.78708 
933 2 0.69605 13.3734 7.34062 
2010 2 13.7708 12.0487 10.0778 
2802 2 12.023 13.835 10.0725 
2874 2 15.6359 10.472 10.0454 
2100 2 17.2997 12.1355 10.0773 
2883 2 15.471 13.8156 9.98617 
2964 2 19.1599 13.6576 10.0415 
3045 2 22.4436 13.5744 10.1603 
2190 2 20.7458 11.8213 10.1025 
3117 2 26.8942 11.4617 9.86924 
3126 2 25.9511 13.6796 10.119 
2280 2 24.2214 11.8388 10.1746 
3207 2 29.4693 11.189 9.83298 
2370 2 28.5628 13.3747 9.99299 
1743 2 39.9783 11.7403 8.5411 
2560 2 39.3721 13.4659 10.3749 
833 2 39.169 13.6438 7.26047 
1033 2 2.22237 14.8538 8.85335 
2650 2 0.928286 16.7672 10.1946 
2019 2 13.7353 15.5729 9.96556 
2892 2 15.5849 17.1548 9.96523 
2109 2 17.3233 15.3143 10.0069 
2973 2 18.9732 17.1198 9.94381 
2199 2 20.8278 15.3969 9.96756 
3054 2 22.5344 17.1197 10.0259 
2289 2 24.1973 15.341 10.0924 
3135 2 25.8361 17.1583 10.075 
2379 2 27.5737 15.5209 10.1007 
3216 2 29.4252 17.1432 10.1719 
3297 2 38.9633 16.0329 7.13036 
1753 2 40.6121 14.9527 8.84606 
3298 2 39.378 16.3379 10.3653 
43 2 41.0178 17.2073 8.02601 
143 2 2.56398 17.4041 8.41672 
1043 2 1.78242 19.732 8.73094 
2811 2 11.9031 17.2966 10.058 
2028 2 13.7552 18.9065 9.98701 
2820 2 11.9367 20.6119 10.0367 
2118 2 17.2143 18.9427 9.90553 
2982 2 18.9677 20.6185 9.89659 
2208 2 20.7147 18.8638 9.93467 
2298 2 24.224 18.9477 10.0401 
3144 2 25.996 20.6575 10.035 
2388 2 27.6602 18.8409 10.0311 
2478 2 31.0953 18.9144 10.185 
3306 2 37.4077 19.7658 7.0916 
843 2 38.6672 17.9441 8.56702 
943 2 40.2599 19.4836 7.4808 
3307 2 38.5443 20.3406 9.15593 
2569 2 40.668 19.0391 9.839 
53 2 2.07923 22.3316 8.62784 
1947 2 10.319 22.4275 10.1033 
2037 2 13.5869 22.3985 9.89308 
2901 2 15.4227 20.6736 9.8828 
2127 2 17.2594 22.3351 9.86441 
2910 2 15.4827 24.008 9.81564 
2217 2 20.7116 22.4438 9.86739 
3063 2 22.4872 20.6798 9.90906 
2307 2 24.2653 22.4408 9.93861 
3225 2 29.4417 20.7134 10.1148 
2397 2 27.6473 22.4373 10.0299 
3234 2 29.4753 24.0851 10.1271 
3397 2 40.8784 24.0069 9.43246 
853 2 38.7958 23.6648 7.96315 
1763 2 40.6548 21.5541 8.90999 
2578 2 38.8734 22.6955 10.1805 
153 2 2.12185 24.7159 8.6526 
1053 2 0.257647 25.6241 7.31928 
163 2 2.45604 26.9976 8.38085 
2668 2 0.401043 26.5441 9.77417 
1956 2 10.2813 25.9601 10.075 
2829 2 11.9563 24.2398 9.95668 
2046 2 13.8659 25.7817 9.8142 
2136 2 17.1222 25.9231 9.87663 
2991 2 18.9699 24.2052 9.86739 
2226 2 20.714 25.9781 9.88508 
3072 2 22.4947 24.1994 9.9166 
3153 2 25.9363 24.1829 9.96898 
2316 2 24.2184 25.9718 9.9665 
2406 2 27.7632 25.872 10.1363 
2496 2 31.107 25.874 10.3526 
1773 2 39.1759 25.9636 8.78575 
63 2 1.36514 28.9443 9.32507 
1063 2 1.38065 30.5234 7.20026 
963 2 0.486614 27.9991 7.28396 
2838 2 12.2321 27.5207 9.87902 
1965 2 10.7302 29.3667 9.77649 
2055 2 13.662 29.5864 10.0854 
2919 2 15.3626 27.7577 9.87873 
2145 2 17.1911 29.4086 9.92029 
3000 2 18.9146 27.6705 9.83171 
2235 2 20.7815 29.2775 9.92012 
3081 2 22.5017 27.6152 9.92409 
2325 2 24.2803 29.2643 10.0005 
3162 2 26.0383 27.5612 10.0541 
2415 2 27.6482 29.3628 10.1854 
3243 2 29.4233 27.6464 10.2806 
863 2 39.6826 28.4513 9.02987 
2677 2 1.0769 31.3714 9.41778 
73 2 1.53134 33.8489 7.92992 
173 2 2.69715 33.2674 10.0049 
3009 2 19.1144 31.0248 10.0322 
3090 2 22.5336 30.9746 10.0062 
3171 2 25.8317 31.0538 10.1359 
1783 2 39.4123 31.0454 9.15285 
873 2 38.6546 33.6829 8.4002 
973 2 40.5738 32.3397 7.50535 
2596 2 40.6266 33.3307 9.85273 
1073 2 2.85199 35.6557 9.04448 
83 2 0.849735 37.1676 9.87 
1884 2 1.37418 36.8498 7.39226 
183 2 4.87905 37.0612 9.59166 
1703 2 35.7822 36.9755 7.98909 
1793 2 37.9877 36.0545 8.75213 
3415 2 40.5892 35.3978 8.49912 
983 2 39.5218 37.6999 9.44848 
3 2 2.08921 41.0099 8.18934 
93 2 1.8351 39.652 10.2403 
1083 2 2.96265 38.259 8.64258 
2694 2 0.451575 38.999 8.19509 
1983 2 6.78386 39.8822 7.22402 
193 2 5.00419 39.6413 8.71452 
1173 2 6.93721 37.7248 8.41221 
1984 2 7.46567 39.7437 9.87186 
283 2 9.32926 38.2147 9.12243 
293 2 8.97461 40.5601 8.16703 
2074 2 10.0188 40.4246 10.3671 
1263 2 11.383 39.1364 8.26462 
393 2 12.7548 40.7854 9.50103 
2928 2 17.1673 39.2678 7.86626 
383 2 14.7214 39.5452 8.44874 
2155 2 16.3368 39.6049 10.3167 
3019 2 18.8696 39.6461 9.84844 
1443 2 21.091 40.422 8.7121 
583 2 23.4449 39.758 8.01761 
3100 2 23.4243 40.1202 10.457 
2334 2 25.6122 38.6894 7.13278 
1533 2 25.6107 39.8534 9.31084 
693 2 27.3423 40.3929 7.6128 
683 2 29.201 38.9955 8.22727 
3181 2 27.8578 39.558 10.3028 
2425 2 30.58 39.0529 10.2475 
1623 2 31.4548 39.913 8.16572 
783 2 33.4085 38.2996 8.38081 
793 2 33.764 40.9176 8.31859 
3262 2 33.0122 39.4979 10.3734 
2515 2 35.0488 37.7376 10.3161 
883 2 37.3351 38.6859 9.54853 
893 2 36.6973 40.852 7.75703 
2524 2 35.4402 40.0727 9.88269 
803 2 38.0803 0.310389 10.143 
1803 2 39.0819 39.8403 8.14716 
104 2 2.34751 2.08267 12.7635 
3352 2 0.295199 3.19175 12.1328 
2704 2 3.82347 2.84164 10.9751 
1094 2 5.83138 1.18296 13.1958 
1912 2 6.39876 2.62711 11.2667 
114 2 4.68848 3.3221 13.1972 
1903 2 5.89884 0.30571 10.8993 
1894 2 3.81879 0.274964 12.4863 
1184 2 10.09 1.17078 12.5305 
314 2 12.4969 1.43546 13.6626 
2866 2 13.3491 2.06972 11.2759 
2092 2 15.9901 2.22494 11.6872 
2254 2 20.0565 0.789735 10.5034 
2947 2 18.5304 2.40886 11.6164 
1364 2 20.1398 1.95915 13.4112 
414 2 17.5832 2.10761 13.8608 
3028 2 23.301 2.92608 12.0611 
2182 2 20.9804 3.00136 11.1685 
504 2 22.0238 0.844672 12.2647 
2272 2 25.9601 2.66423 11.5284 
2344 2 24.514 0.848567 12.0916 
694 2 27.5059 0.696276 11.8709 
614 2 27.7985 2.69179 13.4844 
3109 2 28.3357 2.90116 10.5453 
1544 2 29.7951 1.70591 12.0559 
2362 2 31.2632 2.927 10.5899 
3190 2 33.8553 0.901836 10.9735 
714 2 32.7424 2.74051 12.4885 
704 2 34.3217 1.15292 13.4022 
794 2 31.92 0.397715 12.6522 
2443 2 36.2052 0.498436 11.8196 
2452 2 35.3914 2.77413 11.3667 
3271 2 38.0536 2.12007 11.981 
2533 2 40.1253 0.87896 11.9214 
1724 2 39.0767 3.46243 13.7939 
2632 2 0.494832 5.95587 11.2334 
14 2 2.45587 4.54514 12.6724 
2713 2 3.01437 6.03624 10.9047 
1014 2 2.15867 6.95297 13.2333 
1644 2 34.9506 3.68756 13.5545 
3280 2 36.9774 4.5067 12.1017 
2542 2 39.2704 4.45893 11.5366 
3361 2 38.8593 6.72363 11.0595 
1734 2 38.6644 6.20012 13.514 
914 2 40.9486 5.11358 13.625 
1831 2 1.8612 8.30878 11.0946 
124 2 2.47237 9.75793 13.309 
2794 2 12.2155 10.1356 13.5573 
1193 2 13.987 10.2165 11.8341 
1283 2 16.9193 10.1285 12.0507 
2956 2 18.7748 9.95977 13.7081 
1373 2 20.5453 10.1207 11.9718 
3037 2 22.4023 9.96892 13.6918 
1463 2 24.2667 10.0345 11.976 
1553 2 26.729 9.63677 11.5691 
3118 2 25.9676 10.021 13.8662 
3199 2 28.429 9.59054 13.376 
24 2 41.1376 9.88037 12.3278 
924 2 40.7032 7.54827 12.919 
824 2 38.7807 8.97148 12.3387 
1024 2 1.78945 12.696 13.7087 
2722 2 2.33357 11.3912 11.4618 
1840 2 2.44716 13.8702 11.3454 
1113 2 10.3191 13.7348 11.8653 
1921 2 10.3478 11.9076 13.6605 
223 2 12.0539 11.9557 11.8226 
1203 2 13.7164 13.7966 11.8492 
2011 2 13.7282 11.9978 13.6547 
2803 2 11.976 13.7551 13.6458 
2101 2 17.0907 11.8668 13.7228 
323 2 15.4756 12.1283 11.8838 
2884 2 15.4576 13.779 13.7045 
1293 2 17.2769 13.725 11.9282 
423 2 18.829 11.8046 11.9019 
2965 2 18.8938 13.6424 13.7337 
2191 2 20.6134 11.7787 13.7713 
1383 2 20.709 13.5827 11.9348 
523 2 22.4354 11.7505 11.9125 
3046 2 22.4078 13.6188 13.7567 
623 2 25.9303 11.8823 12.0321 
1473 2 24.182 13.6382 11.9737 
3127 2 25.8906 13.6315 13.8289 
2281 2 24.157 11.7974 13.7291 
1653 2 30.3066 13.0061 11.7371 
723 2 28.4052 11.4434 11.8407 
1563 2 27.6056 13.6882 12.1055 
2461 2 30.2073 11.2847 13.4768 
3208 2 29.4889 13.6004 13.8653 
3289 2 39.3882 10.9472 10.8173 
3370 2 41.014 12.3828 12.0679 
1744 2 39.07 11.3658 13.303 
2731 2 3.19886 16.2172 10.6819 
1034 2 1.758 16.7034 12.6179 
134 2 2.90222 14.8138 13.598 
1930 2 10.0943 15.4818 13.5914 
1123 2 10.1141 17.2247 11.8668 
233 2 11.9889 15.5506 11.8514 
2020 2 13.6748 15.5281 13.667 
1213 2 13.7455 17.2478 11.8065 
2812 2 11.8607 17.2319 13.6465 
333 2 15.5029 15.4755 11.8485 
1303 2 17.2449 17.1332 11.8093 
2110 2 17.2375 15.4832 13.6766 
2893 2 15.4098 17.2407 13.6067 
433 2 19.0201 15.4387 11.843 
2974 2 19.0011 17.1413 13.6329 
2200 2 20.6966 15.3136 13.7511 
1393 2 20.7446 17.1378 11.7823 
533 2 22.4145 15.3382 11.9378 
3055 2 22.4373 17.1659 13.5624 
633 2 25.9349 15.4288 11.973 
1483 2 24.2064 17.1198 11.8824 