Nickle Copper Simulation

3430 	atoms
0 	bonds
0 	angles
0 	dihedrals
0 	impropers

2	atom types
0	bond types
0	angle types
0	dihedral types
0	improper types

-0.02	41.42	xlo xhi
-0.02	41.42	ylo yhi
-0.02	41.42	zlo zhi

Atoms

	1	2	-0.0012	-0.0045	-0.0048
	2	2	-0.0069	-0.001	4.5925
	3	2	0.002	-0.0017	9.2078
	4	2	-0.005	0.006	13.7963
	5	2	0.0016	-0.0029	18.4034
	6	2	-0.0055	-0.0095	22.9924
	7	2	-0.0078	-0.0009	27.6018
	8	2	0.001	0.007	32.1978
	9	2	-0.0063	0.0059	36.7982
	10	2	-0.0002	0.0038	41.4061
	11	2	-0.005	4.6057	0.0024
	12	2	-0.0008	4.6054	4.6078
	13	2	-0.0016	4.5918	9.1911
	14	2	-0.0057	4.5979	13.8059
	15	2	0.0015	4.5948	18.4055
	16	2	0.0036	4.6024	22.9943
	17	2	0.007	4.6089	27.6053
	18	2	0.0046	4.6037	32.1955
	19	2	0.0049	4.6082	36.7914
	20	2	-0.0026	4.601	41.4019
	21	2	-0.0065	9.2078	-0.0003
	22	2	0.0092	9.1959	4.5941
	23	2	-0.0092	9.2095	9.1965
	24	2	0.0069	9.2019	13.8022
	25	2	-0.0034	9.2079	18.3983
	26	2	-0.0099	9.2026	23.008
	27	2	-0.0002	9.195	27.6009
	28	2	-0.0036	9.1973	32.1923
	29	2	0.0056	9.1977	36.8024
	30	2	0.0084	9.1942	41.3949
	31	2	0.0023	13.7973	0.0021
	32	2	-0.0052	13.7962	4.6067
	33	2	0.0045	13.805	9.1913
	34	2	0.0036	13.8069	13.7932
	35	2	0.0073	13.8051	18.4006
	36	2	0.0018	13.7996	22.997
	37	2	0.0051	13.8048	27.5926
	38	2	0.0006	13.8021	32.2072
	39	2	0.0072	13.7954	36.7905
	40	2	0.0088	13.792	41.3925
	41	2	-0.005	18.4086	0.0019
	42	2	-0.0047	18.3935	4.5996
	43	2	-0.0067	18.3927	9.2046
	44	2	0.0043	18.3944	13.8094
	45	2	0.0014	18.3908	18.4005
	46	2	-0.0022	18.3961	23.0082
	47	2	-0.0043	18.3999	27.6009
	48	2	0.0025	18.3903	32.2029
	49	2	0.0052	18.4096	36.7904
	50	2	0.0019	18.4073	41.3919
	51	2	0.0071	22.9959	-0.0001
	52	2	-0.0061	22.9907	4.6038
	53	2	0.002	22.9952	9.2053
	54	2	-0.0094	22.9901	13.7999
	55	2	-0.009	23.0034	18.3935
	56	2	-0.0018	23.0013	23.0025
	57	2	-0.0065	23.0065	27.6021
	58	2	-0.0046	23.0036	32.2025
	59	2	0.0081	22.9997	36.7911
	60	2	-0.0081	22.9918	41.4061
	61	2	0.0097	27.6096	0.0079
	62	2	-0.0055	27.609	4.597
	63	2	-0.0099	27.6061	9.1917
	64	2	-0.0051	27.6029	13.7981
	65	2	-0.0089	27.591	18.4048
	66	2	0.0054	27.6097	23.0085
	67	2	-0.0035	27.5913	27.5997
	68	2	0.0086	27.5941	32.2079
	69	2	-0.0063	27.6054	36.8063
	70	2	0.0031	27.5927	41.3991
	71	2	-0.0015	32.1997	-0.0052
	72	2	-0.0099	32.1952	4.5992
	73	2	-0.0012	32.1947	9.2007
	74	2	-0.0092	32.204	13.8059
	75	2	0.0015	32.2029	18.3936
	76	2	-0.0036	32.1963	22.9923
	77	2	-0.003	32.1917	27.5936
	78	2	-0.0051	32.1924	32.2043
	79	2	-0.0081	32.207	36.7948
	80	2	0.0095	32.2055	41.3945
	81	2	0.0096	36.8031	-0.0058
	82	2	0.0091	36.8028	4.6016
	83	2	-0.0005	36.7983	9.2012
	84	2	0.0012	36.8036	13.8071
	85	2	-0.0001	36.8097	18.3903
	86	2	-0.0072	36.8003	22.995
	87	2	0.0004	36.8027	27.5952
	88	2	-0.0026	36.8051	32.197
	89	2	0.0078	36.7947	36.7946
	90	2	-0.0065	36.7998	41.4073
	91	2	-0.0042	41.4011	-0.0063
	92	2	-0.0097	41.4011	4.6047
	93	2	0.0012	41.3982	9.1997
	94	2	0.0076	41.393	13.8013
	95	2	0.0007	41.403	18.394
	96	2	0.0099	41.4087	22.9945
	97	2	0.007	41.4054	27.6064
	98	2	-0.0043	41.4006	32.1954
	99	2	-0.0061	41.4097	36.8015
	100	2	0.0041	41.3959	41.4005
	101	2	4.5992	-0.0033	-0.0041
	102	2	4.5922	0.0021	4.6075
	103	2	4.6005	-0.004	9.1943
	104	2	4.6082	-0.0057	13.8007
	105	2	4.5944	-0.0071	18.3988
	106	2	4.6056	0.0003	22.9927
	107	2	4.6068	-0.0006	27.602
	108	2	4.595	-0.0002	32.1907
	109	2	4.6071	-0.0081	36.8045
	110	2	4.5931	0.0064	41.3969
	111	2	4.5925	4.5979	0.0042
	112	2	4.5955	4.6077	4.5987
	113	2	4.5982	4.609	9.1995
	114	2	4.6035	4.5903	13.8016
	115	2	4.602	4.6094	18.3982
	116	2	4.5933	4.5927	22.9983
	117	2	4.5951	4.6098	27.5903
	118	2	4.5951	4.602	32.2038
	119	2	4.5987	4.6064	36.7961
	120	2	4.6024	4.595	41.4042
	121	2	4.6006	9.2077	0.0013
	122	2	4.5958	9.1922	4.6052
	123	2	4.6035	9.2	9.1947
	124	2	4.6029	9.2097	13.8088
	125	2	4.5955	9.2002	18.3911
	126	2	4.5971	9.1906	23.0087
	127	2	4.5983	9.207	27.5973
	128	2	4.5932	9.2021	32.2024
	129	2	4.6089	9.2037	36.8092
	130	2	4.6041	9.2066	41.4099
	131	2	4.6078	13.7977	-0.0014
	132	2	4.6004	13.7948	4.595
	133	2	4.5951	13.7947	9.2041
	134	2	4.6052	13.7941	13.7963
	135	2	4.5935	13.7964	18.3936
	136	2	4.6083	13.792	23.0099
	137	2	4.5916	13.8018	27.591
	138	2	4.6044	13.8099	32.2082
	139	2	4.6058	13.8017	36.8083
	140	2	4.5977	13.7924	41.408
	141	2	4.5946	18.4068	0.0081
	142	2	4.5944	18.4091	4.607
	143	2	4.6066	18.4058	9.2028
	144	2	4.5973	18.4054	13.7979
	145	2	4.6006	18.4087	18.3981
	146	2	4.6062	18.4087	23.0007
	147	2	4.5959	18.4062	27.601
	148	2	4.6053	18.3901	32.2008
	149	2	4.5993	18.4046	36.796
	150	2	4.6098	18.4074	41.3932
	151	2	4.5928	22.9955	0.0021
	152	2	4.6096	22.9909	4.5915
	153	2	4.6012	23.0037	9.2036
	154	2	4.6054	23.0074	13.7943
	155	2	4.5915	23.0094	18.3955
	156	2	4.5956	22.9991	22.9952
	157	2	4.5922	23.0034	27.601
	158	2	4.6061	22.9965	32.1973
	159	2	4.5944	22.9906	36.7933
	160	2	4.6048	23.0092	41.4017
	161	2	4.6045	27.6069	-0.0032
	162	2	4.5919	27.6031	4.6051
	163	2	4.5994	27.6047	9.2096
	164	2	4.5995	27.597	13.8017
	165	2	4.5991	27.5996	18.3998
	166	2	4.6085	27.6044	23.0059
	167	2	4.5902	27.5936	27.5996
	168	2	4.6081	27.5927	32.1981
	169	2	4.6019	27.6035	36.8096
	170	2	4.606	27.6056	41.3911
	171	2	4.5986	32.205	0.0022
	172	2	4.5952	32.206	4.599
	173	2	4.6045	32.1923	9.192
	174	2	4.5944	32.2065	13.7975
	175	2	4.5941	32.1926	18.403
	176	2	4.5919	32.1927	23.0067
	177	2	4.6063	32.2045	27.5951
	178	2	4.6028	32.2086	32.2099
	179	2	4.6057	32.1926	36.797
	180	2	4.5911	32.1948	41.4077
	181	2	4.5915	36.7931	0.0087
	182	2	4.6094	36.7988	4.5967
	183	2	4.6061	36.8008	9.1965
	184	2	4.5949	36.797	13.7963
	185	2	4.6051	36.8005	18.3912
	186	2	4.5947	36.8087	23.0005
	187	2	4.5921	36.8085	27.6043
	188	2	4.6005	36.7981	32.2012
	189	2	4.5931	36.8059	36.7942
	190	2	4.598	36.7958	41.3966
	191	2	4.6014	41.4007	0.0007
	192	2	4.5969	41.4037	4.6089
	193	2	4.5975	41.4026	9.2022
	194	2	4.5982	41.4072	13.7984
	195	2	4.6045	41.3969	18.41
	196	2	4.5934	41.4072	23.0045
	197	2	4.5949	41.3937	27.5986
	198	2	4.59	41.3902	32.2064
	199	2	4.6021	41.4046	36.7904
	200	2	4.5951	41.3944	41.391
	201	2	9.1975	-0.0031	-0.0063
	202	2	9.1913	-0.007	4.6056
	203	2	9.2052	-0.0026	9.1987
	204	2	9.2082	-0.0015	13.808
	205	2	9.1941	-0.0083	18.4032
	206	2	9.1975	-0.0085	23.01
	207	2	9.207	0.0025	27.5934
	208	2	9.1908	-0.004	32.2068
	209	2	9.1907	0.0022	36.7908
	210	2	9.1948	-0.0032	41.4034
	211	2	9.1967	4.6033	0.0025
	212	2	9.2022	4.6068	4.5903
	213	2	9.1926	4.5972	9.2027
	214	2	9.1937	4.6071	13.8025
	215	2	9.1925	4.6029	18.4081
	216	2	9.2066	4.5985	23.0044
	217	2	9.2088	4.5995	27.6061
	218	2	9.2016	4.5946	32.2065
	219	2	9.2006	4.5965	36.7997
	220	2	9.1975	4.6097	41.4044
	221	2	9.2062	9.2071	-0.0096
	222	2	9.1948	9.2017	4.6071
	223	2	9.2057	9.2062	9.2026
	224	2	9.1952	9.197	13.7914
	225	2	9.2021	9.2052	18.4096
	226	2	9.1958	9.1927	22.9943
	227	2	9.2087	9.199	27.5916
	228	2	9.1902	9.1963	32.1978
	229	2	9.2043	9.1954	36.7959
	230	2	9.1986	9.204	41.4056
	231	2	9.1983	13.7963	-0.0092
	232	2	9.2021	13.8071	4.5919
	233	2	9.2048	13.8072	9.1997
	234	2	9.2084	13.7994	13.8051
	235	2	9.1969	13.8027	18.4007
	236	2	9.1902	13.7931	23.0015
	237	2	9.1979	13.8037	27.6096
	238	2	9.2081	13.79	32.2046
	239	2	9.2083	13.7998	36.8067
	240	2	9.2054	13.8019	41.4019
	241	2	9.1917	18.4089	0.0004
	242	2	9.2039	18.3963	4.5919
	243	2	9.1947	18.3939	9.2
	244	2	9.2046	18.4	13.8064
	245	2	9.2052	18.4045	18.4063
	246	2	9.1903	18.3984	23.0086
	247	2	9.1937	18.4071	27.5926
	248	2	9.2005	18.3905	32.1956
	249	2	9.208	18.3957	36.7902
	250	2	9.2085	18.3941	41.4099
	251	2	9.1915	22.9953	0.0027
	252	2	9.1992	23.002	4.6006
	253	2	9.1925	23.0044	9.196
	254	2	9.2075	22.9983	13.7913
	255	2	9.2038	22.9949	18.4031
	256	2	9.2062	22.9923	22.99
	257	2	9.2082	23.0087	27.6097
	258	2	9.2035	23.0017	32.1969
	259	2	9.1941	23.004	36.7922
	260	2	9.1969	22.9932	41.3903
	261	2	9.192	27.6045	-0.0088
	262	2	9.1967	27.6006	4.6057
	263	2	9.1969	27.5954	9.2065
	264	2	9.1921	27.5916	13.7955
	265	2	9.1946	27.5978	18.3992
	266	2	9.2073	27.5926	22.9956
	267	2	9.208	27.6019	27.5915
	268	2	9.2036	27.5951	32.1925
	269	2	9.2094	27.6029	36.7962
	270	2	9.2096	27.6018	41.4023
	271	2	9.192	32.2038	-0.0011
	272	2	9.1999	32.207	4.5955
	273	2	9.2078	32.1936	9.2004
	274	2	9.2047	32.1961	13.7959
	275	2	9.2042	32.209	18.4057
	276	2	9.1925	32.1971	22.9901
	277	2	9.2072	32.2016	27.5943
	278	2	9.1926	32.2043	32.2092
	279	2	9.2085	32.1986	36.7907
	280	2	9.2051	32.2016	41.397
	281	2	9.195	36.7988	0.0028
	282	2	9.1926	36.793	4.5977
	283	2	9.1903	36.7935	9.1952
	284	2	9.1996	36.8022	13.8014
	285	2	9.2016	36.8069	18.3925
	286	2	9.2084	36.8073	23.0097
	287	2	9.1959	36.8024	27.5985
	288	2	9.2056	36.8038	32.2068
	289	2	9.2017	36.804	36.8067
	290	2	9.1946	36.7943	41.3987
	291	2	9.1909	41.3935	-0.0064
	292	2	9.2022	41.3973	4.5911
	293	2	9.2044	41.3973	9.1953
	294	2	9.1914	41.404	13.8028
	295	2	9.2064	41.3989	18.3967
	296	2	9.2078	41.3925	22.9965
	297	2	9.2059	41.3944	27.6093
	298	2	9.197	41.3994	32.1964
	299	2	9.2058	41.4087	36.8029
	300	2	9.21	41.3913	41.3946
	301	2	13.8015	-0.0089	0.0074
	302	2	13.8033	0.0051	4.5907
	303	2	13.8004	-0.0077	9.1979
	304	2	13.7986	0.0043	13.8064
	305	2	13.8075	-0.0055	18.3903
	306	2	13.8073	0.0091	22.9953
	307	2	13.8069	0.001	27.6027
	308	2	13.7965	0.0018	32.2072
	309	2	13.8059	-0.0016	36.7977
	310	2	13.7961	0.0056	41.4045
	311	2	13.8032	4.606	-0.0084
	312	2	13.7935	4.5937	4.6004
	313	2	13.8088	4.6013	9.2068
	314	2	13.7977	4.5933	13.7974
	315	2	13.8084	4.5907	18.3916
	316	2	13.7924	4.5969	23.0041
	317	2	13.8097	4.6094	27.6049
	318	2	13.7925	4.597	32.1903
	319	2	13.7974	4.6053	36.8055
	320	2	13.806	4.5996	41.3985
	321	2	13.8077	9.1979	-0.009
	322	2	13.8026	9.2029	4.6057
	323	2	13.8006	9.1956	9.1961
	324	2	13.8029	9.2093	13.8017
	325	2	13.7961	9.1916	18.4095
	326	2	13.7949	9.1957	23.0047
	327	2	13.7966	9.2054	27.5969
	328	2	13.8057	9.2085	32.1935
	329	2	13.7978	9.2069	36.794
	330	2	13.8026	9.1913	41.3934
	331	2	13.7928	13.8035	-0.0064
	332	2	13.7915	13.7938	4.597
	333	2	13.796	13.8095	9.203
	334	2	13.7954	13.7974	13.7916
	335	2	13.794	13.8087	18.4002
	336	2	13.8009	13.8038	23.0072
	337	2	13.7976	13.7948	27.5984
	338	2	13.7998	13.7956	32.1997
	339	2	13.802	13.8044	36.8039
	340	2	13.8012	13.8095	41.3925
	341	2	13.8049	18.4057	0.0071
	342	2	13.7977	18.3913	4.607
	343	2	13.8001	18.3993	9.2063
	344	2	13.8081	18.401	13.7943
	345	2	13.7965	18.4055	18.4097
	346	2	13.797	18.4039	23.0051
	347	2	13.8079	18.397	27.6005
	348	2	13.7985	18.3974	32.2054
	349	2	13.7919	18.3928	36.8009
	350	2	13.8053	18.3968	41.3943
	351	2	13.7916	22.9941	-0.0088
	352	2	13.8016	23.0085	4.6075
	353	2	13.8063	22.9931	9.2007
	354	2	13.7907	23.0042	13.8066
	355	2	13.7947	23.0051	18.3984
	356	2	13.804	22.9906	23.0093
	357	2	13.8001	22.9901	27.5998
	358	2	13.8009	22.9982	32.1917
	359	2	13.8094	22.9978	36.7915
	360	2	13.7924	23.0045	41.3922
	361	2	13.7958	27.6002	-0.0015
	362	2	13.8023	27.5973	4.5932
	363	2	13.8058	27.5939	9.2017
	364	2	13.7973	27.6048	13.806
	365	2	13.792	27.6049	18.3923
	366	2	13.8063	27.6058	22.994
	367	2	13.8012	27.5912	27.6085
	368	2	13.7951	27.5989	32.1925
	369	2	13.8073	27.6094	36.7922
	370	2	13.8082	27.5979	41.405
	371	2	13.8071	32.1955	0.0029
	372	2	13.7992	32.2017	4.602
	373	2	13.7912	32.2048	9.2037
	374	2	13.7922	32.1976	13.7938
	375	2	13.8038	32.1993	18.4012
	376	2	13.807	32.1985	23.0091
	377	2	13.8047	32.1951	27.6035
	378	2	13.7995	32.2082	32.2051
	379	2	13.8083	32.2069	36.7996
	380	2	13.807	32.2042	41.4082
	381	2	13.7966	36.7962	0.0003
	382	2	13.8098	36.8045	4.595
	383	2	13.7974	36.793	9.1953
	384	2	13.808	36.7954	13.8005
	385	2	13.7973	36.7904	18.4069
	386	2	13.8095	36.7958	23.0062
	387	2	13.8068	36.8055	27.5951
	388	2	13.7936	36.7985	32.1917
	389	2	13.7951	36.8024	36.7904
	390	2	13.7999	36.7917	41.4097
	391	2	13.7967	41.4077	-0.0084
	392	2	13.7986	41.4009	4.5928
	393	2	13.8093	41.4	9.2082
	394	2	13.8093	41.4038	13.8057
	395	2	13.8031	41.4057	18.3954
	396	2	13.7963	41.3911	23.002
	397	2	13.7908	41.404	27.5956
	398	2	13.7941	41.3927	32.1981
	399	2	13.8096	41.4021	36.799
	400	2	13.7965	41.4074	41.4068
	401	2	18.3936	-0.0008	-0.0052
	402	2	18.3982	0.0057	4.5925
	403	2	18.3918	-0.0028	9.1926
	404	2	18.4072	-0.002	13.7981
	405	2	18.3995	-0.0052	18.3998
	406	2	18.3906	-0.0001	22.9962
	407	2	18.4006	0.0052	27.6064
	408	2	18.4099	0.0099	32.1924
	409	2	18.4072	0.0022	36.794
	410	2	18.3982	-0.0068	41.3916
	411	2	18.3964	4.5986	0.0041
	412	2	18.3959	4.5923	4.5929
	413	2	18.4014	4.6	9.1938
	414	2	18.4073	4.6052	13.8006
	415	2	18.3976	4.6025	18.4026
	416	2	18.3903	4.6017	22.9987
	417	2	18.3964	4.5972	27.5929
	418	2	18.4078	4.6076	32.1954
	419	2	18.3974	4.608	36.8062
	420	2	18.4056	4.5956	41.4068
	421	2	18.4083	9.204	-0.0047
	422	2	18.3901	9.1917	4.6098
	423	2	18.4094	9.1974	9.2068
	424	2	18.3952	9.1944	13.8093
	425	2	18.3934	9.1968	18.4071
	426	2	18.3975	9.1942	22.9934
	427	2	18.3924	9.2044	27.6006
	428	2	18.3924	9.2001	32.2089
	429	2	18.3929	9.1906	36.7947
	430	2	18.3939	9.1998	41.3922
	431	2	18.3926	13.7943	0.0035
	432	2	18.3938	13.8077	4.6062
	433	2	18.4011	13.7973	9.2065
	434	2	18.4031	13.7992	13.798
	435	2	18.3977	13.8004	18.4079
	436	2	18.4085	13.7968	23.0037
	437	2	18.3928	13.8038	27.5963
	438	2	18.4083	13.7952	32.1991
	439	2	18.3959	13.7996	36.7967
	440	2	18.4087	13.8068	41.3953
	441	2	18.4041	18.4065	-0.0007
	442	2	18.4013	18.3916	4.61
	443	2	18.3927	18.3979	9.2076
	444	2	18.4093	18.3922	13.8019
	445	2	18.4083	18.396	18.4065
	446	2	18.3955	18.4044	22.9983
	447	2	18.4029	18.4086	27.6095
	448	2	18.4091	18.3928	32.2087
	449	2	18.4058	18.3994	36.8056
	450	2	18.3962	18.3973	41.3997
	451	2	18.396	23.0038	-0.002
	452	2	18.4073	23.0002	4.6056
	453	2	18.3983	23.0072	9.1917
	454	2	18.3975	23.0043	13.793
	455	2	18.3992	23.0024	18.4019
	456	2	18.4007	22.9954	23.007
	457	2	18.4049	23.0045	27.5961
	458	2	18.3926	22.9994	32.1987
	459	2	18.406	22.9993	36.8097
	460	2	18.3943	23.0098	41.3952
	461	2	18.3992	27.6074	0.0027
	462	2	18.4048	27.5935	4.6074
	463	2	18.4058	27.6034	9.1911
	464	2	18.401	27.5993	13.8074
	465	2	18.4007	27.5962	18.3954
	466	2	18.4059	27.5913	23.0072
	467	2	18.4001	27.6076	27.5961
	468	2	18.4012	27.5913	32.203
	469	2	18.4011	27.6009	36.8084
	470	2	18.405	27.6095	41.3936
	471	2	18.4019	32.201	0.0059
	472	2	18.4022	32.2064	4.5935
	473	2	18.3949	32.2001	9.2054
	474	2	18.3912	32.2	13.8088
	475	2	18.402	32.2053	18.4074
	476	2	18.3982	32.196	23.0016
	477	2	18.3913	32.1903	27.6032
	478	2	18.4081	32.2076	32.2089
	479	2	18.4066	32.2056	36.7998
	480	2	18.3947	32.2054	41.3974
	481	2	18.4044	36.8056	0.0092
	482	2	18.3995	36.8068	4.5921
	483	2	18.3913	36.7913	9.2081
	484	2	18.4032	36.7922	13.7903
	485	2	18.3949	36.7966	18.3935
	486	2	18.4034	36.8042	22.9912
	487	2	18.399	36.8077	27.6051
	488	2	18.4053	36.8086	32.1993
	489	2	18.3985	36.8096	36.7983
	490	2	18.3908	36.7965	41.4075
	491	2	18.3953	41.3922	0.009
	492	2	18.4092	41.396	4.5958
	493	2	18.4007	41.4081	9.2088
	494	2	18.4079	41.4021	13.8047
	495	2	18.4014	41.3991	18.4005
	496	2	18.3955	41.4075	23.0031
	497	2	18.4076	41.3964	27.5992
	498	2	18.4026	41.4031	32.1992
	499	2	18.3997	41.3995	36.7954
	500	2	18.405	41.3935	41.3978
	501	2	22.9917	-0.0045	-0.0018
	502	2	23.0035	-0.007	4.6028
	503	2	23.0064	-0.0027	9.2099
	504	2	22.9983	0.0056	13.8068
	505	2	23.0049	0.0096	18.4017
	506	2	23.0016	-0.0033	23.0035
	507	2	23.0018	-0.0077	27.5945
	508	2	23.0006	-0.0052	32.2092
	509	2	23.001	0.0025	36.8023
	510	2	22.9943	0.0021	41.4068
	511	2	23.0023	4.5946	0.0048
	512	2	22.9967	4.5937	4.5997
	513	2	23.0016	4.5945	9.1929
	514	2	22.9974	4.5936	13.8074
	515	2	22.9916	4.608	18.4025
	516	2	22.9991	4.6053	22.9951
	517	2	22.9927	4.5973	27.6089
	518	2	23.009	4.5918	32.2077
	519	2	22.9946	4.5955	36.7919
	520	2	22.9907	4.6051	41.394
	521	2	23.0006	9.2011	-0.0065
	522	2	22.9949	9.1947	4.5921
	523	2	23.0061	9.1945	9.1978
	524	2	23.0003	9.1924	13.8032
	525	2	22.9929	9.1991	18.4062
	526	2	22.9918	9.2073	23.0061
	527	2	23.0042	9.2037	27.6042
	528	2	23.0029	9.2046	32.2076
	529	2	23.0025	9.2057	36.8063
	530	2	23.006	9.2093	41.4036
	531	2	22.9926	13.7954	-0.0058
	532	2	23.0067	13.7947	4.607
	533	2	22.9908	13.8095	9.1976
	534	2	23.0001	13.7983	13.7965
	535	2	23.0015	13.8044	18.4044
	536	2	22.9905	13.8041	22.9916
	537	2	22.9941	13.8006	27.5934
	538	2	22.9949	13.8043	32.1937
	539	2	23.0087	13.7938	36.7941
	540	2	22.9924	13.7959	41.4079
	541	2	22.9962	18.3975	0.0094
	542	2	23.0063	18.3919	4.5955
	543	2	23.0039	18.3961	9.201
	544	2	23.0035	18.3949	13.8061
	545	2	23.0045	18.3969	18.3922
	546	2	23.0024	18.409	23.008
	547	2	23.005	18.4028	27.6065
	548	2	23.0066	18.4019	32.2075
	549	2	22.9943	18.4084	36.7984
	550	2	23.0089	18.4063	41.4064
	551	2	22.9921	22.9996	0.0077
	552	2	22.9923	22.9931	4.6085
	553	2	23.0037	22.9993	9.1929
	554	2	22.9995	23.0038	13.8056
	555	2	22.9949	22.9997	18.3994
	556	2	23.0086	23.0	22.9977
	557	2	23.0099	22.9924	27.5904
	558	2	23.0075	23.0065	32.1952
	559	2	23.0087	23.0026	36.8084
	560	2	22.9995	23.0084	41.3968
	561	2	22.9922	27.5911	0.0095
	562	2	22.9907	27.6098	4.605
	563	2	22.9921	27.5923	9.2007
	564	2	23.0068	27.6095	13.7931
	565	2	23.0086	27.5931	18.3929
	566	2	22.9954	27.6044	22.994
	567	2	23.0081	27.6038	27.6047
	568	2	22.99	27.5939	32.1957
	569	2	23.0013	27.6073	36.79
	570	2	23.0056	27.5955	41.4091
	571	2	23.0082	32.2045	0.0074
	572	2	22.9902	32.1917	4.6099
	573	2	23.0059	32.209	9.207
	574	2	23.0064	32.1947	13.7988
	575	2	22.9989	32.2083	18.4005
	576	2	22.9934	32.1925	23.001
	577	2	23.006	32.208	27.6087
	578	2	22.9996	32.1972	32.2021
	579	2	23.0001	32.2087	36.7917
	580	2	23.0094	32.1958	41.4055
	581	2	22.9948	36.8091	0.0046
	582	2	22.9972	36.7926	4.598
	583	2	23.0059	36.8015	9.199
	584	2	23.0089	36.801	13.7917
	585	2	23.0023	36.8038	18.407
	586	2	22.993	36.809	23.0013
	587	2	23.0044	36.7905	27.6086
	588	2	23.0082	36.8079	32.1991
	589	2	23.0053	36.7947	36.8062
	590	2	23.0051	36.8038	41.3952
	591	2	23.0046	41.4006	0.0002
	592	2	23.0033	41.4092	4.5963
	593	2	23.0038	41.3943	9.206
	594	2	23.0089	41.4054	13.8027
	595	2	23.0051	41.3953	18.4075
	596	2	23.0036	41.4029	22.9928
	597	2	23.0068	41.4092	27.5922
	598	2	23.0097	41.3948	32.194
	599	2	22.9964	41.392	36.8023
	600	2	22.9905	41.4001	41.3967
	601	2	27.603	-0.0065	-0.0079
	602	2	27.5936	0.0089	4.5928
	603	2	27.6001	0.0026	9.2043
	604	2	27.5948	0.002	13.7953
	605	2	27.5965	0.0079	18.4098
	606	2	27.6096	0.0015	22.9901
	607	2	27.5928	0.0047	27.6091
	608	2	27.5902	-0.0035	32.1995
	609	2	27.5994	0.0057	36.7914
	610	2	27.6081	-0.0076	41.3924
	611	2	27.6083	4.597	-0.0087
	612	2	27.6064	4.5921	4.6078
	613	2	27.5957	4.5939	9.1963
	614	2	27.5999	4.5909	13.7938
	615	2	27.6087	4.5934	18.3939
	616	2	27.6078	4.6053	23.0093
	617	2	27.5978	4.596	27.5961
	618	2	27.6004	4.5968	32.2056
	619	2	27.6004	4.5928	36.8084
	620	2	27.5947	4.5999	41.3973
	621	2	27.6016	9.2017	-0.0084
	622	2	27.5935	9.2093	4.6071
	623	2	27.6084	9.2073	9.19
	624	2	27.6038	9.2091	13.8028
	625	2	27.6002	9.1907	18.4086
	626	2	27.6072	9.1902	23.0025
	627	2	27.604	9.2036	27.6039
	628	2	27.604	9.1924	32.1957
	629	2	27.6077	9.1943	36.8049
	630	2	27.6023	9.2046	41.4017
	631	2	27.6038	13.7995	0.0019
	632	2	27.5906	13.8067	4.6011
	633	2	27.6084	13.8029	9.2053
	634	2	27.6026	13.8002	13.7983
	635	2	27.6069	13.8087	18.391
	636	2	27.6087	13.7966	22.9922
	637	2	27.6059	13.7943	27.5965
	638	2	27.5957	13.8008	32.2079
	639	2	27.5907	13.8092	36.7941
	640	2	27.5986	13.8073	41.398
	641	2	27.6096	18.4044	-0.0003
	642	2	27.5905	18.3976	4.6098
	643	2	27.5919	18.395	9.2067
	644	2	27.5972	18.402	13.8063
	645	2	27.6086	18.4073	18.4065
	646	2	27.5932	18.405	22.9968
	647	2	27.6086	18.4001	27.6045
	648	2	27.6037	18.3901	32.2033
	649	2	27.599	18.4076	36.8024
	650	2	27.6045	18.4049	41.3907
	651	2	27.5949	23.0095	-0.0061
	652	2	27.5921	22.9919	4.6041
	653	2	27.5964	23.0052	9.1901
	654	2	27.6089	23.003	13.7995
	655	2	27.6035	23.0004	18.4024
	656	2	27.595	23.0055	23.0029
	657	2	27.5918	23.0091	27.6044
	658	2	27.6041	22.9947	32.2068
	659	2	27.5937	22.9922	36.7962
	660	2	27.6035	22.9925	41.4022
	661	2	27.5935	27.5997	-0.005
	662	2	27.6002	27.5983	4.5996
	663	2	27.5935	27.5992	9.2012
	664	2	27.6052	27.6023	13.7944
	665	2	27.6072	27.6036	18.4038
	666	2	27.6057	27.6098	22.9955
	667	2	27.6084	27.595	27.592
	668	2	27.5999	27.5963	32.2076
	669	2	27.6062	27.5972	36.7949
	670	2	27.604	27.6012	41.4079
	671	2	27.6041	32.2068	-0.0026
	672	2	27.5924	32.1912	4.5955
	673	2	27.6044	32.1951	9.1967
	674	2	27.6021	32.2031	13.7944
	675	2	27.6036	32.1973	18.3933
	676	2	27.6013	32.1939	23.0022
	677	2	27.5919	32.2073	27.5933
	678	2	27.5976	32.1964	32.2017
	679	2	27.5989	32.1993	36.7936
	680	2	27.5962	32.206	41.4068
	681	2	27.6016	36.8071	0.0004
	682	2	27.5963	36.803	4.5931
	683	2	27.6041	36.7982	9.1912
	684	2	27.6093	36.7943	13.8047
	685	2	27.593	36.8057	18.403
	686	2	27.5906	36.8096	22.9981
	687	2	27.5982	36.8047	27.6073
	688	2	27.6093	36.7988	32.1929
	689	2	27.5926	36.8089	36.7989
	690	2	27.6018	36.8066	41.3947
	691	2	27.5977	41.3989	0.0018
	692	2	27.6034	41.4002	4.6082
	693	2	27.6034	41.4048	9.1966
	694	2	27.6033	41.3977	13.7962
	695	2	27.5979	41.3984	18.396
	696	2	27.5968	41.4023	23.001
	697	2	27.6029	41.3978	27.6094
	698	2	27.5957	41.4072	32.1966
	699	2	27.5941	41.4092	36.8024
	700	2	27.5931	41.3966	41.4026
	701	2	32.1964	0.0059	-0.0014
	702	2	32.1975	0.0087	4.5959
	703	2	32.1985	-0.0035	9.2
	704	2	32.2087	-0.0007	13.805
	705	2	32.1914	-0.0073	18.4068
	706	2	32.2071	-0.0014	22.9922
	707	2	32.2012	0.0052	27.5962
	708	2	32.1907	-0.0009	32.1934
	709	2	32.1954	0.0062	36.7933
	710	2	32.2013	0.0041	41.4062
	711	2	32.1963	4.6084	-0.0054
	712	2	32.1952	4.6021	4.5944
	713	2	32.2006	4.5923	9.1947
	714	2	32.1968	4.5955	13.8052
	715	2	32.201	4.6038	18.3996
	716	2	32.1939	4.6077	23.0038
	717	2	32.1953	4.5918	27.5991
	718	2	32.1975	4.601	32.1976
	719	2	32.2033	4.5993	36.7995
	720	2	32.2034	4.5961	41.4013
	721	2	32.201	9.2092	-0.0045
	722	2	32.2028	9.1963	4.6064
	723	2	32.1948	9.1901	9.2037
	724	2	32.1947	9.2093	13.7973
	725	2	32.2009	9.2039	18.4016
	726	2	32.1902	9.1997	23.0076
	727	2	32.1969	9.2023	27.6064
	728	2	32.2068	9.197	32.1962
	729	2	32.2015	9.1932	36.7902
	730	2	32.2074	9.1971	41.3985
	731	2	32.1937	13.805	0.0018
	732	2	32.1984	13.7954	4.6012
	733	2	32.2033	13.8075	9.2068
	734	2	32.2046	13.791	13.8
	735	2	32.1934	13.8064	18.3976
	736	2	32.2019	13.8002	22.9911
	737	2	32.1965	13.8006	27.6042
	738	2	32.1966	13.7993	32.1974
	739	2	32.1929	13.7972	36.8033
	740	2	32.191	13.807	41.4066
	741	2	32.2055	18.391	0.0093
	742	2	32.2043	18.3949	4.602
	743	2	32.208	18.3918	9.2018
	744	2	32.204	18.3913	13.795
	745	2	32.1987	18.4062	18.4029
	746	2	32.1926	18.4091	22.9908
	747	2	32.2079	18.4072	27.609
	748	2	32.2042	18.4027	32.2078
	749	2	32.1966	18.4074	36.8029
	750	2	32.1977	18.3974	41.4021
	751	2	32.2071	22.9905	-0.004
	752	2	32.1952	22.9969	4.6081
	753	2	32.2045	22.998	9.1902
	754	2	32.2086	22.9994	13.7989
	755	2	32.2098	23.0002	18.4045
	756	2	32.2046	22.9945	23.0027
	757	2	32.2051	23.0096	27.6097
	758	2	32.1918	22.9922	32.1966
	759	2	32.1975	23.0011	36.7905
	760	2	32.1952	22.9956	41.3954
	761	2	32.2028	27.6027	-0.0055
	762	2	32.1975	27.5907	4.6089
	763	2	32.205	27.6034	9.2019
	764	2	32.2065	27.6066	13.7986
	765	2	32.1999	27.5963	18.3974
	766	2	32.1906	27.6068	23.0089
	767	2	32.1997	27.5992	27.6043
	768	2	32.194	27.5919	32.2076
	769	2	32.1919	27.6082	36.8042
	770	2	32.2032	27.5915	41.4087
	771	2	32.2017	32.2039	-0.0043
	772	2	32.2056	32.1991	4.5997
	773	2	32.2035	32.2051	9.2064
	774	2	32.2001	32.2072	13.8086
	775	2	32.1933	32.2087	18.4013
	776	2	32.1995	32.1907	23.0091
	777	2	32.2022	32.2065	27.603
	778	2	32.194	32.1965	32.1984
	779	2	32.2081	32.2082	36.795
	780	2	32.1923	32.1993	41.4025
	781	2	32.2011	36.79	0.0028
	782	2	32.2062	36.8075	4.6035
	783	2	32.1977	36.7955	9.2063
	784	2	32.1922	36.7946	13.8009
	785	2	32.2085	36.7932	18.4031
	786	2	32.1933	36.7913	22.9974
	787	2	32.1999	36.8001	27.5929
	788	2	32.2007	36.7901	32.1916
	789	2	32.196	36.7907	36.7963
	790	2	32.1909	36.7918	41.3937
	791	2	32.1948	41.4034	0.0007
	792	2	32.2047	41.3934	4.5981
	793	2	32.2008	41.3986	9.2016
	794	2	32.2068	41.3966	13.7924
	795	2	32.2033	41.4092	18.409
	796	2	32.1996	41.4037	23.0096
	797	2	32.1903	41.401	27.5975
	798	2	32.2035	41.4013	32.1929
	799	2	32.1991	41.4051	36.7979
	800	2	32.1919	41.3943	41.3937
	801	2	36.8014	-0.0022	0.0056
	802	2	36.7934	-0.0012	4.5976
	803	2	36.8024	0.0033	9.2068
	804	2	36.7972	0.0019	13.8006
	805	2	36.7904	0.0049	18.4016
	806	2	36.8008	0.0052	22.9943
	807	2	36.7908	-0.0051	27.6002
	808	2	36.8098	-0.0084	32.2036
	809	2	36.8036	0.0024	36.8041
	810	2	36.7999	0.0097	41.3997
	811	2	36.8002	4.6069	-0.0038
	812	2	36.7988	4.6094	4.5929
	813	2	36.7907	4.6006	9.1989
	814	2	36.8051	4.6084	13.7973
	815	2	36.8002	4.598	18.4012
	816	2	36.7961	4.5989	23.0069
	817	2	36.7987	4.5997	27.6049
	818	2	36.8063	4.6091	32.1919
	819	2	36.7917	4.5988	36.8061
	820	2	36.8096	4.5905	41.3924
	821	2	36.7994	9.1971	0.0038
	822	2	36.7956	9.1938	4.6077
	823	2	36.7978	9.2076	9.2077
	824	2	36.7954	9.199	13.7998
	825	2	36.8022	9.193	18.3982
	826	2	36.807	9.2008	23.0004
	827	2	36.7924	9.2075	27.6074
	828	2	36.8034	9.2036	32.1932
	829	2	36.799	9.2027	36.7988
	830	2	36.7974	9.1991	41.3953
	831	2	36.8087	13.8073	0.0069
	832	2	36.8009	13.808	4.5968
	833	2	36.8094	13.7981	9.2029
	834	2	36.7984	13.7913	13.7952
	835	2	36.7919	13.8043	18.4003
	836	2	36.8064	13.7925	23.0022
	837	2	36.8004	13.8029	27.6011
	838	2	36.8017	13.7969	32.1954
	839	2	36.8004	13.7975	36.7983
	840	2	36.8016	13.7906	41.4012
	841	2	36.79	18.3915	-0.0035
	842	2	36.8028	18.4022	4.6062
	843	2	36.8018	18.4023	9.2074
	844	2	36.8053	18.3933	13.7971
	845	2	36.797	18.398	18.4042
	846	2	36.7966	18.405	23.0025
	847	2	36.7952	18.4091	27.5977
	848	2	36.8056	18.3962	32.206
	849	2	36.7926	18.4032	36.8081
	850	2	36.7974	18.3978	41.3971
	851	2	36.8052	22.9965	-0.006
	852	2	36.801	22.9925	4.6047
	853	2	36.7976	23.0055	9.2083
	854	2	36.7976	23.0091	13.8068
	855	2	36.8022	22.9917	18.4054
	856	2	36.8002	23.0053	23.0098
	857	2	36.8012	22.9991	27.6024
	858	2	36.7918	23.0084	32.1978
	859	2	36.7925	23.0044	36.8093
	860	2	36.8052	22.9962	41.3905
	861	2	36.8087	27.6072	0.0002
	862	2	36.797	27.6018	4.6059
	863	2	36.8052	27.5967	9.2059
	864	2	36.8097	27.6087	13.7943
	865	2	36.8094	27.6015	18.4069
	866	2	36.7932	27.6052	23.0052
	867	2	36.7957	27.5923	27.5995
	868	2	36.8027	27.608	32.1995
	869	2	36.8013	27.5999	36.8063
	870	2	36.7958	27.6016	41.3979
	871	2	36.7916	32.2042	-0.0063
	872	2	36.8095	32.1987	4.5911
	873	2	36.8048	32.2065	9.205
	874	2	36.8047	32.1992	13.7966
	875	2	36.8066	32.2067	18.3975
	876	2	36.8061	32.2079	23.0032
	877	2	36.8042	32.2012	27.5961
	878	2	36.7958	32.2093	32.1966
	879	2	36.8019	32.2068	36.7987
	880	2	36.7903	32.1979	41.4024
	881	2	36.8092	36.8034	0.0053
	882	2	36.7984	36.7991	4.5924
	883	2	36.7998	36.8007	9.1982
	884	2	36.8009	36.7915	13.7951
	885	2	36.7997	36.8009	18.401
	886	2	36.8066	36.7931	22.9942
	887	2	36.7937	36.8056	27.6065
	888	2	36.8089	36.8085	32.1925
	889	2	36.8041	36.7952	36.7976
	890	2	36.7939	36.8078	41.3963
	891	2	36.7999	41.401	0.0044
	892	2	36.7992	41.4019	4.6047
	893	2	36.7926	41.3993	9.2012
	894	2	36.8066	41.3975	13.805
	895	2	36.7916	41.3918	18.399
	896	2	36.7921	41.4	23.0036
	897	2	36.7969	41.4088	27.594
	898	2	36.7913	41.396	32.1939
	899	2	36.8011	41.3927	36.7928
	900	2	36.7975	41.403	41.3939
	901	2	41.4025	0.0077	-0.002
	902	2	41.4083	-0.0024	4.5935
	903	2	41.402	0.0019	9.198
	904	2	41.403	0.01	13.7928
	905	2	41.3988	-0.0008	18.406
	906	2	41.4004	0.0024	22.9965
	907	2	41.4055	-0.0034	27.5979
	908	2	41.3928	0.0025	32.1908
	909	2	41.3955	-0.004	36.7927
	910	2	41.4092	-0.0072	41.4095
	911	2	41.4091	4.5941	0.0097
	912	2	41.3971	4.603	4.5955
	913	2	41.4072	4.5966	9.1969
	914	2	41.4034	4.6068	13.8025
	915	2	41.3951	4.5911	18.404
	916	2	41.4056	4.6065	22.9947
	917	2	41.3923	4.5965	27.6014
	918	2	41.4008	4.6034	32.1971
	919	2	41.4084	4.594	36.8094
	920	2	41.402	4.5987	41.4044
	921	2	41.3959	9.2011	0.0099
	922	2	41.4064	9.2041	4.6044
	923	2	41.3917	9.1911	9.1968
	924	2	41.4067	9.19	13.8015
	925	2	41.4012	9.2092	18.4079
	926	2	41.4049	9.2095	22.9909
	927	2	41.4002	9.2015	27.5942
	928	2	41.3967	9.1976	32.2061
	929	2	41.4016	9.2053	36.7911
	930	2	41.3946	9.1932	41.4028
	931	2	41.4067	13.7913	0.004
	932	2	41.4011	13.8095	4.6047
	933	2	41.4027	13.8021	9.1976
	934	2	41.3902	13.8042	13.8032
	935	2	41.4087	13.7917	18.4085
	936	2	41.4081	13.7959	22.997
	937	2	41.4061	13.8043	27.609
	938	2	41.3981	13.7974	32.2086
	939	2	41.4029	13.7905	36.7951
	940	2	41.3983	13.7944	41.4007
	941	2	41.4087	18.4086	-0.0093
	942	2	41.3969	18.3997	4.6015
	943	2	41.4053	18.4094	9.1968
	944	2	41.3975	18.395	13.8022
	945	2	41.392	18.3955	18.404
	946	2	41.3984	18.4063	23.002
	947	2	41.3909	18.3921	27.6041
	948	2	41.4074	18.3979	32.2085
	949	2	41.4073	18.3943	36.7913
	950	2	41.3911	18.3927	41.3956
	951	2	41.4027	23.0053	0.0022
	952	2	41.3999	23.0001	4.6002
	953	2	41.3949	22.9916	9.201
	954	2	41.4068	22.9981	13.8011
	955	2	41.3913	22.9915	18.4009
	956	2	41.4088	23.0029	23.0017
	957	2	41.3919	23.0098	27.5901
	958	2	41.3995	23.0073	32.2008
	959	2	41.3929	23.0072	36.7902
	960	2	41.4037	22.9944	41.3974
	961	2	41.3934	27.6035	-0.0075
	962	2	41.3909	27.6041	4.5967
	963	2	41.3953	27.6002	9.2051
	964	2	41.3939	27.5919	13.7998
	965	2	41.393	27.5953	18.3954
	966	2	41.3916	27.6017	23.0025
	967	2	41.408	27.6091	27.6041
	968	2	41.4013	27.5961	32.2079
	969	2	41.397	27.6002	36.8004
	970	2	41.3921	27.5954	41.3975
	971	2	41.4077	32.1978	-0.0078
	972	2	41.3995	32.2039	4.595
	973	2	41.3915	32.193	9.1976
	974	2	41.4079	32.2028	13.7959
	975	2	41.4069	32.2003	18.3963
	976	2	41.3988	32.1992	22.9989
	977	2	41.3927	32.1931	27.5909
	978	2	41.3975	32.2049	32.2078
	979	2	41.408	32.1982	36.8045
	980	2	41.3908	32.2007	41.3932
	981	2	41.4047	36.8003	-0.0066
	982	2	41.3954	36.8034	4.5903
	983	2	41.3997	36.8016	9.2078
	984	2	41.4067	36.7959	13.7971
	985	2	41.4047	36.7921	18.3979
	986	2	41.4007	36.7987	23.0024
	987	2	41.4022	36.7923	27.6048
	988	2	41.4046	36.8032	32.1982
	989	2	41.3911	36.8051	36.8007
	990	2	41.4084	36.8064	41.4035
	991	2	41.3904	41.4003	-0.001
	992	2	41.4085	41.4091	4.5991
	993	2	41.4086	41.3979	9.2014
	994	2	41.4043	41.3973	13.8083
	995	2	41.4094	41.4062	18.4091
	996	2	41.4042	41.3942	22.994
	997	2	41.4044	41.394	27.6059