Nickle Copper Simulation

14 	atoms
0 	bonds
0 	angles
0 	dihedrals
0 	impropers

2	atom types
0	bond types
0	angle types
0	dihedral types
0	improper types

-0.02	4.619999999999999	xlo xhi
-0.02	4.619999999999999	ylo yhi
-0.02	4.619999999999999	zlo zhi

Atoms

	1	1	0.0052	-0.0006	-0.0042
	2	1	0.0009	-0.0073	4.604
	3	2	-0.0012	4.5981	0.0079
	4	2	-0.0078	4.6025	4.6055
	5	2	4.5919	-0.0029	0.0025
	6	2	4.6027	0.0058	4.6097
	7	1	4.6062	4.5966	0.006
	8	2	4.5979	4.593	4.6079
	9	2	2.2935	2.2967	-0.001
	10	2	2.3004	2.2957	4.607
	11	2	2.3095	-0.0085	2.291
	12	2	2.3047	4.6075	2.2989
	13	1	-0.0083	2.3085	2.2924
	14	1	4.5937	2.2962	2.2991

Velocities

	1	0.0	0.0	0.0
	2	0.0	0.0	0.0
	3	0.0	0.0	0.0
	4	0.0	0.0	0.0
	5	0.0	0.0	0.0
	6	0.0	0.0	0.0
	7	0.0	0.0	0.0
	8	0.0	0.0	0.0
	9	0.0	0.0	0.0
	10	0.0	0.0	0.0
	11	0.0	0.0	0.0
	12	0.0	0.0	0.0
	13	0.0	0.0	0.0
	14	0.0	0.0	0.0

