Nickle Copper Simulation

365 	atoms
0 	bonds
0 	angles
0 	dihedrals
0 	impropers

2	atom types
0	bond types
0	angle types
0	dihedral types
0	improper types

-0.02	18.419999999999998	xlo xhi
-0.02	18.419999999999998	ylo yhi
-0.02	18.419999999999998	zlo zhi

Atoms

	1	1	0.0058	0.0079	-0.0098
	2	2	-0.0086	-0.0048	4.5937
	3	1	-0.0027	-0.0042	9.2083
	4	1	0.0077	0.0041	13.8079
	5	1	0.0019	-0.0064	18.3908
	6	2	0.0019	4.6049	0.0072
	7	2	-0.0021	4.5969	4.6074
	8	1	0.0038	4.5988	9.193
	9	2	-0.0089	4.596	13.8034
	10	1	-0.0053	4.5997	18.3978
	11	2	0.0012	9.1971	0.0078
	12	2	-0.007	9.1947	4.5987
	13	1	-0.003	9.2033	9.1977
	14	1	-0.0035	9.2001	13.8094
	15	2	0.009	9.2009	18.3902
	16	2	-0.0035	13.8053	0.0011
	17	2	0.0069	13.799	4.5953
	18	1	0.0075	13.8007	9.1929
	19	2	-0.0041	13.8054	13.7904
	20	1	-0.0054	13.7909	18.4029
	21	1	0.0007	18.3906	0.0022
	22	2	-0.0055	18.4007	4.5924
	23	2	-0.0048	18.4015	9.1955
	24	1	-0.0089	18.4005	13.8055
	25	2	0.0005	18.3951	18.3939
	26	1	4.5954	0.0061	0.0047
	27	1	4.5974	0.0024	4.5953
	28	2	4.6009	-0.0038	9.1967
	29	2	4.597	-0.0012	13.8036
	30	1	4.6009	-0.0007	18.4064
	31	2	4.5906	4.6045	0.0024
	32	2	4.6075	4.5939	4.6026
	33	2	4.6075	4.5993	9.2046
	34	1	4.5993	4.5904	13.8001
	35	2	4.6046	4.5986	18.4041
	36	1	4.5969	9.2044	-0.0028
	37	1	4.605	9.2073	4.6012
	38	2	4.6075	9.2031	9.1911
	39	1	4.6071	9.1968	13.8071
	40	1	4.5963	9.2006	18.3936
	41	1	4.6014	13.7978	-0.0051
	42	2	4.6011	13.797	4.5977
	43	1	4.6061	13.7903	9.1959
	44	2	4.6005	13.7946	13.7967
	45	2	4.5965	13.7906	18.4043
	46	2	4.602	18.4002	-0.0014
	47	1	4.6048	18.4018	4.6064
	48	2	4.5973	18.3937	9.2086
	49	2	4.6037	18.3951	13.8023
	50	2	4.6058	18.4055	18.3926
	51	1	9.1906	-0.0029	0.0052
	52	2	9.1917	0.0052	4.6066
	53	2	9.1904	-0.0039	9.1995
	54	1	9.2093	-0.009	13.7978
	55	2	9.2018	0.0098	18.4014
	56	2	9.1949	4.5984	-0.0088
	57	2	9.1906	4.597	4.6052
	58	2	9.1957	4.5935	9.2009
	59	2	9.2047	4.5941	13.7945
	60	2	9.1904	4.5903	18.3971
	61	1	9.2075	9.1967	0.0071
	62	2	9.1951	9.1969	4.608
	63	1	9.2088	9.2054	9.2041
	64	2	9.1907	9.1923	13.7921
	65	1	9.2039	9.1918	18.398
	66	1	9.2015	13.8026	0.0024
	67	1	9.1996	13.81	4.6028
	68	2	9.2039	13.7991	9.1907
	69	1	9.1956	13.8064	13.7971
	70	2	9.1918	13.8075	18.401
	71	2	9.1944	18.4032	0.0027
	72	2	9.1944	18.4018	4.5964
	73	1	9.1942	18.4014	9.2093
	74	2	9.2087	18.3964	13.8066
	75	2	9.1907	18.4051	18.4023
	76	2	13.8066	0.0097	0.0051
	77	2	13.8065	0.0078	4.5963
	78	2	13.8028	-0.0094	9.1957
	79	2	13.7929	0.0045	13.8045
	80	1	13.8062	0.002	18.4018
	81	2	13.8078	4.5938	-0.0018
	82	2	13.8092	4.5911	4.6013
	83	1	13.8012	4.5931	9.2085
	84	2	13.8046	4.6075	13.7988
	85	1	13.8009	4.6021	18.3978
	86	1	13.7972	9.2026	-0.008
	87	2	13.8019	9.1977	4.5909
	88	1	13.8008	9.2082	9.1953
	89	1	13.7967	9.1911	13.8029
	90	1	13.7917	9.1908	18.3915
	91	2	13.7964	13.7979	0.0019
	92	2	13.7951	13.8071	4.5973
	93	2	13.8087	13.8074	9.193
	94	2	13.7949	13.8086	13.8099
	95	2	13.8046	13.8016	18.4008
	96	2	13.7942	18.3912	0.0046
	97	1	13.7964	18.3915	4.5924
	98	1	13.7911	18.4087	9.2098
	99	2	13.8024	18.3952	13.7971
	100	2	13.8071	18.4054	18.3935
	101	2	18.4083	-0.0038	-0.0078
	102	2	18.3969	0.0049	4.5923
	103	2	18.3941	-0.0089	9.1953
	104	2	18.4031	0.0018	13.797
	105	2	18.3966	0.001	18.4099
	106	1	18.4078	4.5941	0.0003
	107	2	18.3962	4.6066	4.6074
	108	2	18.4022	4.6057	9.1977
	109	2	18.4015	4.5957	13.796
	110	2	18.3909	4.5965	18.3904
	111	1	18.3971	9.203	-0.0027
	112	2	18.3943	9.2018	4.6006
	113	2	18.4096	9.2076	9.1985
	114	1	18.3992	9.2084	13.8036
	115	2	18.4042	9.1917	18.4031
	116	1	18.3968	13.7994	-0.0088
	117	2	18.4051	13.7936	4.5907
	118	2	18.3901	13.8038	9.207
	119	1	18.4008	13.806	13.7952
	120	1	18.3975	13.7947	18.3994
	121	2	18.3975	18.3938	-0.0005
	122	2	18.4097	18.3901	4.6005
	123	1	18.4097	18.3945	9.1989
	124	2	18.4068	18.3957	13.7986
	125	2	18.3985	18.4038	18.4028
	126	1	2.3074	2.2929	-0.0043
	127	1	2.2904	2.3059	4.5935
	128	2	2.2956	2.3031	9.209
	129	2	2.296	2.298	13.7903
	130	2	2.2906	2.2913	18.4006
	131	2	2.306	6.9007	-0.0007
	132	1	2.2927	6.8984	4.6066
	133	1	2.3034	6.905	9.1953
	134	1	2.302	6.8902	13.8083
	135	2	2.3043	6.9031	18.4071
	136	2	2.2945	11.499	-0.0095
	137	1	2.2909	11.5025	4.5934
	138	2	2.3076	11.493	9.2065
	139	2	2.3028	11.5072	13.7974
	140	1	2.2986	11.4909	18.3963
	141	2	2.3099	16.0914	-0.0058
	142	2	2.3027	16.0905	4.5965
	143	2	2.2942	16.1061	9.1981
	144	2	2.3083	16.0914	13.7971
	145	1	2.305	16.1027	18.4022
	146	1	6.9059	2.3051	-0.0084
	147	2	6.9029	2.3091	4.595
	148	2	6.9064	2.2941	9.2073
	149	2	6.8945	2.3056	13.8058
	150	1	6.9029	2.3017	18.4025
	151	2	6.8984	6.8921	-0.0018
	152	2	6.8966	6.9	4.5901
	153	2	6.8954	6.9019	9.2054
	154	1	6.9029	6.9017	13.7966
	155	2	6.9026	6.8944	18.3986
	156	2	6.9047	11.4991	0.0096
	157	2	6.8924	11.509	4.5935
	158	2	6.8947	11.5096	9.195
	159	2	6.9081	11.4969	13.7936
	160	1	6.8987	11.5069	18.4028
	161	2	6.8994	16.091	-0.0077
	162	2	6.8956	16.0983	4.5918
	163	1	6.8965	16.1016	9.1945
	164	2	6.8934	16.0956	13.7928
	165	2	6.9027	16.1098	18.3978
	166	1	11.5072	2.2964	0.0052
	167	2	11.5012	2.3002	4.6089
	168	1	11.5051	2.2906	9.2029
	169	1	11.4994	2.301	13.7905
	170	2	11.5067	2.2961	18.4037
	171	1	11.4931	6.9071	0.0098
	172	2	11.4933	6.9011	4.5924
	173	1	11.4916	6.9048	9.1914
	174	1	11.5052	6.8935	13.8009
	175	2	11.4975	6.8918	18.3945
	176	2	11.5095	11.5019	-0.0072
	177	1	11.4949	11.4912	4.6054
	178	2	11.4901	11.5077	9.2
	179	2	11.4911	11.4941	13.8028
	180	2	11.4967	11.4996	18.3996
	181	2	11.4974	16.1045	0.0044
	182	2	11.4912	16.1084	4.6049
	183	2	11.4954	16.1004	9.1957
	184	2	11.5031	16.1033	13.7978
	185	1	11.504	16.0961	18.3939
	186	2	16.1057	2.3011	-0.0035
	187	2	16.106	2.2965	4.5918
	188	1	16.1048	2.3051	9.2092
	189	2	16.0912	2.3059	13.806
	190	2	16.0973	2.2919	18.3904
	191	2	16.0908	6.8918	-0.0038
	192	2	16.106	6.8987	4.6098
	193	2	16.1098	6.8935	9.2063
	194	2	16.0927	6.9047	13.8002
	195	1	16.0983	6.9095	18.4043
	196	1	16.1046	11.5099	-0.0034
	197	2	16.0918	11.4958	4.602
	198	1	16.1004	11.4934	9.2086
	199	1	16.1016	11.4956	13.8041
	200	2	16.0978	11.497	18.4073
	201	2	16.1066	16.0926	-0.0066
	202	1	16.107	16.0986	4.6056
	203	2	16.1073	16.0968	9.2078
	204	2	16.1074	16.0978	13.7992
	205	2	16.0986	16.1008	18.405
	206	2	2.3008	0.0055	2.3045
	207	1	2.3007	-0.0051	6.8972
	208	1	2.299	-0.0056	11.5005
	209	2	2.2914	0.0074	16.0907
	210	2	2.3069	4.5952	2.3045
	211	1	2.2904	4.6096	6.9072
	212	2	2.2961	4.6072	11.5089
	213	2	2.2976	4.605	16.1082
	214	2	2.3015	9.1932	2.3
	215	2	2.303	9.2008	6.8965
	216	2	2.3077	9.197	11.5027
	217	1	2.3006	9.1923	16.1052
	218	1	2.2926	13.7958	2.3009
	219	1	2.302	13.8029	6.9014
	220	1	2.3077	13.809	11.503
	221	1	2.2933	13.8004	16.1077
	222	1	2.304	18.3973	2.2946
	223	2	2.3052	18.3926	6.8917
	224	2	2.3005	18.3957	11.4984
	225	1	2.3023	18.3996	16.103
	226	1	6.9051	0.0043	2.2987
	227	2	6.892	-0.0058	6.9056
	228	1	6.9004	-0.0069	11.5023
	229	2	6.8927	-0.0087	16.1088
	230	1	6.9097	4.6049	2.3073
	231	2	6.8993	4.5964	6.8993
	232	2	6.9056	4.5952	11.4973
	233	1	6.9034	4.6011	16.1097
	234	2	6.8935	9.2004	2.2914
	235	1	6.9012	9.2071	6.9003
	236	1	6.9078	9.2016	11.4967
	237	1	6.8944	9.1936	16.0911
	238	1	6.8978	13.7978	2.3094
	239	1	6.907	13.8097	6.9043
	240	2	6.8988	13.7936	11.507
	241	2	6.8995	13.7927	16.0957
	242	1	6.9047	18.3999	2.2902
	243	1	6.9043	18.396	6.9057
	244	2	6.9002	18.3968	11.5009
	245	2	6.8979	18.3983	16.0913
	246	2	11.5065	-0.0056	2.3018
	247	1	11.493	0.0058	6.8936
	248	1	11.4941	-0.0036	11.5079
	249	1	11.4953	-0.0075	16.0983
	250	1	11.503	4.6034	2.3031
	251	2	11.497	4.6098	6.896
	252	1	11.4998	4.59	11.505
	253	2	11.5009	4.5966	16.0907
	254	2	11.4973	9.201	2.2988
	255	1	11.4991	9.2096	6.9042
	256	2	11.4941	9.1979	11.5063
	257	2	11.4982	9.1976	16.0923
	258	1	11.4906	13.7912	2.2934
	259	2	11.4923	13.7975	6.891
	260	2	11.5027	13.7969	11.4964
	261	2	11.5065	13.8039	16.0992
	262	1	11.5033	18.4043	2.2909
	263	2	11.4946	18.4091	6.8998
	264	2	11.5046	18.4093	11.5034
	265	2	11.503	18.3997	16.0993
	266	2	16.1051	0.0016	2.3041
	267	1	16.0969	0.0023	6.9069
	268	2	16.0976	-0.009	11.5076
	269	2	16.0908	0.007	16.0922
	270	2	16.0984	4.6069	2.3058
	271	1	16.0929	4.5965	6.8999
	272	2	16.0926	4.6015	11.4975
	273	2	16.1013	4.5919	16.0984
	274	2	16.096	9.1982	2.2925
	275	2	16.1089	9.2053	6.8933
	276	1	16.0936	9.2019	11.5073
	277	2	16.1097	9.2085	16.1069
	278	2	16.1014	13.7908	2.2942
	279	2	16.0926	13.8086	6.8914
	280	1	16.0908	13.8033	11.4914
	281	2	16.0917	13.796	16.1031
	282	2	16.0966	18.403	2.2978
	283	2	16.1058	18.4046	6.8907
	284	1	16.0926	18.3931	11.4984
	285	1	16.1075	18.3972	16.0908
	286	2	0.0095	2.3049	2.2997
	287	2	0.0032	2.2957	6.908
	288	2	-0.0083	2.3044	11.5053
	289	1	0.0026	2.2904	16.1026
	290	2	-0.0014	6.893	2.2966
	291	1	-0.0038	6.8921	6.9078
	292	2	-0.0076	6.9035	11.4908
	293	2	0.0015	6.8968	16.1072
	294	2	0.004	11.5041	2.2993
	295	2	0.0073	11.494	6.8926
	296	1	0.0038	11.4993	11.4975
	297	2	0.0006	11.5008	16.0976
	298	1	0.0016	16.1042	2.3047
	299	2	0.0054	16.103	6.9051
	300	2	-0.0023	16.0979	11.4927
	301	2	0.0045	16.098	16.1028
	302	2	4.6037	2.3073	2.2956
	303	1	4.5978	2.3034	6.9075
	304	1	4.6018	2.3043	11.4923
	305	1	4.5972	2.3014	16.0937
	306	1	4.5952	6.89	2.2948
	307	1	4.5917	6.8936	6.8922
	308	1	4.6037	6.9037	11.5063
	309	1	4.5926	6.9002	16.1026
	310	1	4.6033	11.4942	2.3084
	311	1	4.6084	11.4978	6.8947
	312	2	4.6098	11.5013	11.5062
	313	2	4.5919	11.5012	16.0949
	314	2	4.6085	16.0916	2.2994
	315	1	4.5985	16.1043	6.9034
	316	1	4.5986	16.1055	11.5009
	317	2	4.6006	16.1008	16.1002
	318	1	9.1944	2.2959	2.3016
	319	1	9.1919	2.2954	6.908
	320	1	9.1922	2.3041	11.503
	321	2	9.2098	2.3033	16.0904
	322	1	9.1914	6.9098	2.3031
	323	2	9.209	6.8951	6.8996
	324	2	9.191	6.8956	11.4986
	325	2	9.193	6.8999	16.1007
	326	2	9.1954	11.494	2.2925
	327	2	9.1911	11.4987	6.9029
	328	2	9.2067	11.5065	11.4934
	329	1	9.1986	11.4961	16.0994
	330	1	9.1915	16.0907	2.302
	331	2	9.1983	16.0977	6.9024
	332	1	9.202	16.0926	11.4912
	333	2	9.2098	16.1078	16.0954
	334	1	13.8028	2.3041	2.3064
	335	1	13.7976	2.3062	6.9058
	336	2	13.793	2.2939	11.4916
	337	2	13.7998	2.3046	16.101
	338	2	13.7983	6.9098	2.3006
	339	2	13.7961	6.9063	6.8981
	340	2	13.8031	6.9013	11.4929
	341	2	13.8013	6.8905	16.0924
	342	1	13.7915	11.4965	2.2952
	343	1	13.7905	11.501	6.9077
	344	2	13.7956	11.4926	11.5071
	345	1	13.8028	11.5007	16.1082
	346	1	13.8057	16.0985	2.3064
	347	1	13.797	16.0953	6.9033
	348	2	13.8031	16.101	11.4994
	349	2	13.7919	16.1049	16.092
	350	2	18.4004	2.293	2.3067
	351	2	18.3947	2.301	6.9075
	352	2	18.3935	2.3087	11.5029
	353	2	18.3954	2.3046	16.0988
	354	2	18.3989	6.9037	2.2944
	355	1	18.4083	6.9003	6.8909
	356	1	18.3935	6.9078	11.4997
	357	2	18.3964	6.9034	16.0934
	358	1	18.3984	11.4993	2.2909
	359	2	18.3964	11.4923	6.8989
	360	1	18.4	11.5001	11.5075
	361	2	18.3926	11.4971	16.1076
	362	1	18.3911	16.1051	2.2951
	363	2	18.395	16.1061	6.8964
	364	2	18.4041	16.0993	11.4927
	365	2	18.4089	16.1036	16.1002

Velocities

	1	0.0	0.0	0.0
	2	0.0	0.0	0.0
	3	0.0	0.0	0.0
	4	0.0	0.0	0.0
	5	0.0	0.0	0.0
	6	0.0	0.0	0.0
	7	0.0	0.0	0.0
	8	0.0	0.0	0.0
	9	0.0	0.0	0.0
	10	0.0	0.0	0.0
	11	0.0	0.0	0.0
	12	0.0	0.0	0.0
	13	0.0	0.0	0.0
	14	0.0	0.0	0.0
	15	0.0	0.0	0.0
	16	0.0	0.0	0.0
	17	0.0	0.0	0.0
	18	0.0	0.0	0.0
	19	0.0	0.0	0.0
	20	0.0	0.0	0.0
	21	0.0	0.0	0.0
	22	0.0	0.0	0.0
	23	0.0	0.0	0.0
	24	0.0	0.0	0.0
	25	0.0	0.0	0.0
	26	0.0	0.0	0.0
	27	0.0	0.0	0.0
	28	0.0	0.0	0.0
	29	0.0	0.0	0.0
	30	0.0	0.0	0.0
	31	0.0	0.0	0.0
	32	0.0	0.0	0.0
	33	0.0	0.0	0.0
	34	0.0	0.0	0.0
	35	0.0	0.0	0.0
	36	0.0	0.0	0.0
	37	0.0	0.0	0.0
	38	0.0	0.0	0.0
	39	0.0	0.0	0.0
	40	0.0	0.0	0.0
	41	0.0	0.0	0.0
	42	0.0	0.0	0.0
	43	0.0	0.0	0.0
	44	0.0	0.0	0.0
	45	0.0	0.0	0.0
	46	0.0	0.0	0.0
	47	0.0	0.0	0.0
	48	0.0	0.0	0.0
	49	0.0	0.0	0.0
	50	0.0	0.0	0.0
	51	0.0	0.0	0.0
	52	0.0	0.0	0.0
	53	0.0	0.0	0.0
	54	0.0	0.0	0.0
	55	0.0	0.0	0.0
	56	0.0	0.0	0.0
	57	0.0	0.0	0.0
	58	0.0	0.0	0.0
	59	0.0	0.0	0.0
	60	0.0	0.0	0.0
	61	0.0	0.0	0.0
	62	0.0	0.0	0.0
	63	0.0	0.0	0.0
	64	0.0	0.0	0.0
	65	0.0	0.0	0.0
	66	0.0	0.0	0.0
	67	0.0	0.0	0.0
	68	0.0	0.0	0.0
	69	0.0	0.0	0.0
	70	0.0	0.0	0.0
	71	0.0	0.0	0.0
	72	0.0	0.0	0.0
	73	0.0	0.0	0.0
	74	0.0	0.0	0.0
	75	0.0	0.0	0.0
	76	0.0	0.0	0.0
	77	0.0	0.0	0.0
	78	0.0	0.0	0.0
	79	0.0	0.0	0.0
	80	0.0	0.0	0.0
	81	0.0	0.0	0.0
	82	0.0	0.0	0.0
	83	0.0	0.0	0.0
	84	0.0	0.0	0.0
	85	0.0	0.0	0.0
	86	0.0	0.0	0.0
	87	0.0	0.0	0.0
	88	0.0	0.0	0.0
	89	0.0	0.0	0.0
	90	0.0	0.0	0.0
	91	0.0	0.0	0.0
	92	0.0	0.0	0.0
	93	0.0	0.0	0.0
	94	0.0	0.0	0.0
	95	0.0	0.0	0.0
	96	0.0	0.0	0.0
	97	0.0	0.0	0.0
	98	0.0	0.0	0.0
	99	0.0	0.0	0.0
	100	0.0	0.0	0.0
	101	0.0	0.0	0.0
	102	0.0	0.0	0.0
	103	0.0	0.0	0.0
	104	0.0	0.0	0.0
	105	0.0	0.0	0.0
	106	0.0	0.0	0.0
	107	0.0	0.0	0.0
	108	0.0	0.0	0.0
	109	0.0	0.0	0.0
	110	0.0	0.0	0.0
	111	0.0	0.0	0.0
	112	0.0	0.0	0.0
	113	0.0	0.0	0.0
	114	0.0	0.0	0.0
	115	0.0	0.0	0.0
	116	0.0	0.0	0.0
	117	0.0	0.0	0.0
	118	0.0	0.0	0.0
	119	0.0	0.0	0.0
	120	0.0	0.0	0.0
	121	0.0	0.0	0.0
	122	0.0	0.0	0.0
	123	0.0	0.0	0.0
	124	0.0	0.0	0.0
	125	0.0	0.0	0.0
	126	0.0	0.0	0.0
	127	0.0	0.0	0.0
	128	0.0	0.0	0.0
	129	0.0	0.0	0.0
	130	0.0	0.0	0.0
	131	0.0	0.0	0.0
	132	0.0	0.0	0.0
	133	0.0	0.0	0.0
	134	0.0	0.0	0.0
	135	0.0	0.0	0.0
	136	0.0	0.0	0.0
	137	0.0	0.0	0.0
	138	0.0	0.0	0.0
	139	0.0	0.0	0.0
	140	0.0	0.0	0.0
	141	0.0	0.0	0.0
	142	0.0	0.0	0.0
	143	0.0	0.0	0.0
	144	0.0	0.0	0.0
	145	0.0	0.0	0.0
	146	0.0	0.0	0.0
	147	0.0	0.0	0.0
	148	0.0	0.0	0.0
	149	0.0	0.0	0.0
	150	0.0	0.0	0.0
	151	0.0	0.0	0.0
	152	0.0	0.0	0.0
	153	0.0	0.0	0.0
	154	0.0	0.0	0.0
	155	0.0	0.0	0.0
	156	0.0	0.0	0.0
	157	0.0	0.0	0.0
	158	0.0	0.0	0.0
	159	0.0	0.0	0.0
	160	0.0	0.0	0.0
	161	0.0	0.0	0.0
	162	0.0	0.0	0.0
	163	0.0	0.0	0.0
	164	0.0	0.0	0.0
	165	0.0	0.0	0.0
	166	0.0	0.0	0.0
	167	0.0	0.0	0.0
	168	0.0	0.0	0.0
	169	0.0	0.0	0.0
	170	0.0	0.0	0.0
	171	0.0	0.0	0.0
	172	0.0	0.0	0.0
	173	0.0	0.0	0.0
	174	0.0	0.0	0.0
	175	0.0	0.0	0.0
	176	0.0	0.0	0.0
	177	0.0	0.0	0.0
	178	0.0	0.0	0.0
	179	0.0	0.0	0.0
	180	0.0	0.0	0.0
	181	0.0	0.0	0.0
	182	0.0	0.0	0.0
	183	0.0	0.0	0.0
	184	0.0	0.0	0.0
	185	0.0	0.0	0.0
	186	0.0	0.0	0.0
	187	0.0	0.0	0.0
	188	0.0	0.0	0.0
	189	0.0	0.0	0.0
	190	0.0	0.0	0.0
	191	0.0	0.0	0.0
	192	0.0	0.0	0.0
	193	0.0	0.0	0.0
	194	0.0	0.0	0.0
	195	0.0	0.0	0.0
	196	0.0	0.0	0.0
	197	0.0	0.0	0.0
	198	0.0	0.0	0.0
	199	0.0	0.0	0.0
	200	0.0	0.0	0.0
	201	0.0	0.0	0.0
	202	0.0	0.0	0.0
	203	0.0	0.0	0.0
	204	0.0	0.0	0.0
	205	0.0	0.0	0.0
	206	0.0	0.0	0.0
	207	0.0	0.0	0.0
	208	0.0	0.0	0.0
	209	0.0	0.0	0.0
	210	0.0	0.0	0.0
	211	0.0	0.0	0.0
	212	0.0	0.0	0.0
	213	0.0	0.0	0.0
	214	0.0	0.0	0.0
	215	0.0	0.0	0.0
	216	0.0	0.0	0.0
	217	0.0	0.0	0.0
	218	0.0	0.0	0.0
	219	0.0	0.0	0.0
	220	0.0	0.0	0.0
	221	0.0	0.0	0.0
	222	0.0	0.0	0.0
	223	0.0	0.0	0.0
	224	0.0	0.0	0.0
	225	0.0	0.0	0.0
	226	0.0	0.0	0.0
	227	0.0	0.0	0.0
	228	0.0	0.0	0.0
	229	0.0	0.0	0.0
	230	0.0	0.0	0.0
	231	0.0	0.0	0.0
	232	0.0	0.0	0.0
	233	0.0	0.0	0.0
	234	0.0	0.0	0.0
	235	0.0	0.0	0.0
	236	0.0	0.0	0.0
	237	0.0	0.0	0.0
	238	0.0	0.0	0.0
	239	0.0	0.0	0.0
	240	0.0	0.0	0.0
	241	0.0	0.0	0.0
	242	0.0	0.0	0.0
	243	0.0	0.0	0.0
	244	0.0	0.0	0.0
	245	0.0	0.0	0.0
	246	0.0	0.0	0.0
	247	0.0	0.0	0.0
	248	0.0	0.0	0.0
	249	0.0	0.0	0.0
	250	0.0	0.0	0.0
	251	0.0	0.0	0.0
	252	0.0	0.0	0.0
	253	0.0	0.0	0.0
	254	0.0	0.0	0.0
	255	0.0	0.0	0.0
	256	0.0	0.0	0.0
	257	0.0	0.0	0.0
	258	0.0	0.0	0.0
	259	0.0	0.0	0.0
	260	0.0	0.0	0.0
	261	0.0	0.0	0.0
	262	0.0	0.0	0.0
	263	0.0	0.0	0.0
	264	0.0	0.0	0.0
	265	0.0	0.0	0.0
	266	0.0	0.0	0.0
	267	0.0	0.0	0.0
	268	0.0	0.0	0.0
	269	0.0	0.0	0.0
	270	0.0	0.0	0.0
	271	0.0	0.0	0.0
	272	0.0	0.0	0.0
	273	0.0	0.0	0.0
	274	0.0	0.0	0.0
	275	0.0	0.0	0.0
	276	0.0	0.0	0.0
	277	0.0	0.0	0.0
	278	0.0	0.0	0.0
	279	0.0	0.0	0.0
	280	0.0	0.0	0.0
	281	0.0	0.0	0.0
	282	0.0	0.0	0.0
	283	0.0	0.0	0.0
	284	0.0	0.0	0.0
	285	0.0	0.0	0.0
	286	0.0	0.0	0.0
	287	0.0	0.0	0.0
	288	0.0	0.0	0.0
	289	0.0	0.0	0.0
	290	0.0	0.0	0.0
	291	0.0	0.0	0.0
	292	0.0	0.0	0.0
	293	0.0	0.0	0.0
	294	0.0	0.0	0.0
	295	0.0	0.0	0.0
	296	0.0	0.0	0.0
	297	0.0	0.0	0.0
	298	0.0	0.0	0.0
	299	0.0	0.0	0.0
	300	0.0	0.0	0.0
	301	0.0	0.0	0.0
	302	0.0	0.0	0.0
	303	0.0	0.0	0.0
	304	0.0	0.0	0.0
	305	0.0	0.0	0.0
	306	0.0	0.0	0.0
	307	0.0	0.0	0.0
	308	0.0	0.0	0.0
	309	0.0	0.0	0.0
	310	0.0	0.0	0.0
	311	0.0	0.0	0.0
	312	0.0	0.0	0.0
	313	0.0	0.0	0.0
	314	0.0	0.0	0.0
	315	0.0	0.0	0.0
	316	0.0	0.0	0.0
	317	0.0	0.0	0.0
	318	0.0	0.0	0.0
	319	0.0	0.0	0.0
	320	0.0	0.0	0.0
	321	0.0	0.0	0.0
	322	0.0	0.0	0.0
	323	0.0	0.0	0.0
	324	0.0	0.0	0.0
	325	0.0	0.0	0.0
	326	0.0	0.0	0.0
	327	0.0	0.0	0.0
	328	0.0	0.0	0.0
	329	0.0	0.0	0.0
	330	0.0	0.0	0.0
	331	0.0	0.0	0.0
	332	0.0	0.0	0.0
	333	0.0	0.0	0.0
	334	0.0	0.0	0.0
	335	0.0	0.0	0.0
	336	0.0	0.0	0.0
	337	0.0	0.0	0.0
	338	0.0	0.0	0.0
	339	0.0	0.0	0.0
	340	0.0	0.0	0.0
	341	0.0	0.0	0.0
	342	0.0	0.0	0.0
	343	0.0	0.0	0.0
	344	0.0	0.0	0.0
	345	0.0	0.0	0.0
	346	0.0	0.0	0.0
	347	0.0	0.0	0.0
	348	0.0	0.0	0.0
	349	0.0	0.0	0.0
	350	0.0	0.0	0.0
	351	0.0	0.0	0.0
	352	0.0	0.0	0.0
	353	0.0	0.0	0.0
	354	0.0	0.0	0.0
	355	0.0	0.0	0.0
	356	0.0	0.0	0.0
	357	0.0	0.0	0.0
	358	0.0	0.0	0.0
	359	0.0	0.0	0.0
	360	0.0	0.0	0.0
	361	0.0	0.0	0.0
	362	0.0	0.0	0.0
	363	0.0	0.0	0.0
	364	0.0	0.0	0.0
	365	0.0	0.0	0.0

