Nickle Copper Simulation

63 	atoms
0 	bonds
0 	angles
0 	dihedrals
0 	impropers

2	atom types
0	bond types
0	angle types
0	dihedral types
0	improper types

-0.02	9.219999999999999	xlo xhi
-0.02	9.219999999999999	ylo yhi
-0.02	9.219999999999999	zlo zhi

Atoms

	1	2	0.0031	-0.0013	0.0097
	2	2	-0.0055	-0.0035	4.6057
	3	2	0.0015	0.0008	9.2019
	4	1	-0.0057	4.5917	0.0007
	5	1	0.0089	4.598	4.5994
	6	2	-0.0028	4.6045	9.2009
	7	2	-0.0051	9.1922	-0.0082
	8	2	0.0018	9.2002	4.5939
	9	1	-0.0089	9.2086	9.196
	10	2	4.6009	-0.0038	-0.0044
	11	2	4.6073	-0.002	4.5927
	12	1	4.603	-0.0046	9.2085
	13	2	4.6031	4.6028	0.005
	14	2	4.6068	4.6048	4.6036
	15	2	4.602	4.601	9.2051
	16	1	4.6071	9.2017	-0.0034
	17	1	4.5907	9.2034	4.6091
	18	2	4.6014	9.2085	9.2061
	19	2	9.1908	-0.0096	-0.0061
	20	2	9.2045	0.002	4.6001
	21	1	9.1916	-0.0051	9.205
	22	1	9.2033	4.5935	0.0066
	23	2	9.1977	4.6038	4.6014
	24	2	9.1922	4.6083	9.1975
	25	1	9.1965	9.2074	-0.0057
	26	1	9.207	9.1939	4.5992
	27	2	9.2047	9.1943	9.1939
	28	2	2.3081	2.3005	-0.0097
	29	1	2.3022	2.3017	4.5982
	30	2	2.291	2.3094	9.2028
	31	2	2.2949	6.897	0.0035
	32	1	2.2939	6.8976	4.5993
	33	1	2.2959	6.8963	9.2048
	34	1	6.8931	2.2929	-0.0047
	35	2	6.8992	2.3009	4.6012
	36	2	6.8957	2.3096	9.2053
	37	1	6.9028	6.8926	0.0017
	38	2	6.8947	6.9076	4.606
	39	2	6.9008	6.902	9.1922
	40	1	2.3083	0.0084	2.2924
	41	1	2.3015	-0.0064	6.9089
	42	2	2.291	4.5927	2.3032
	43	1	2.3	4.5988	6.9026
	44	1	2.2983	9.1916	2.3098
	45	2	2.3067	9.2069	6.9041
	46	2	6.898	0.0037	2.3014
	47	2	6.8966	-0.0038	6.8928
	48	2	6.9071	4.6088	2.3069
	49	2	6.9037	4.6063	6.9007
	50	2	6.9016	9.1991	2.2947
	51	1	6.9027	9.2059	6.9083
	52	2	0.0077	2.3087	2.2918
	53	2	-0.0076	2.2953	6.9087
	54	2	0.0068	6.891	2.2903
	55	2	0.0036	6.8923	6.8963
	56	2	4.596	2.3037	2.2932
	57	1	4.6	2.2983	6.9067
	58	1	4.6099	6.9099	2.3028
	59	2	4.6085	6.9021	6.9043
	60	1	9.2054	2.2929	2.3054
	61	2	9.1927	2.2927	6.909
	62	1	9.2042	6.8957	2.2973
	63	2	9.1977	6.8901	6.899

Velocities

	1	0.0	0.0	0.0
	2	0.0	0.0	0.0
	3	0.0	0.0	0.0
	4	0.0	0.0	0.0
	5	0.0	0.0	0.0
	6	0.0	0.0	0.0
	7	0.0	0.0	0.0
	8	0.0	0.0	0.0
	9	0.0	0.0	0.0
	10	0.0	0.0	0.0
	11	0.0	0.0	0.0
	12	0.0	0.0	0.0
	13	0.0	0.0	0.0
	14	0.0	0.0	0.0
	15	0.0	0.0	0.0
	16	0.0	0.0	0.0
	17	0.0	0.0	0.0
	18	0.0	0.0	0.0
	19	0.0	0.0	0.0
	20	0.0	0.0	0.0
	21	0.0	0.0	0.0
	22	0.0	0.0	0.0
	23	0.0	0.0	0.0
	24	0.0	0.0	0.0
	25	0.0	0.0	0.0
	26	0.0	0.0	0.0
	27	0.0	0.0	0.0
	28	0.0	0.0	0.0
	29	0.0	0.0	0.0
	30	0.0	0.0	0.0
	31	0.0	0.0	0.0
	32	0.0	0.0	0.0
	33	0.0	0.0	0.0
	34	0.0	0.0	0.0
	35	0.0	0.0	0.0
	36	0.0	0.0	0.0
	37	0.0	0.0	0.0
	38	0.0	0.0	0.0
	39	0.0	0.0	0.0
	40	0.0	0.0	0.0
	41	0.0	0.0	0.0
	42	0.0	0.0	0.0
	43	0.0	0.0	0.0
	44	0.0	0.0	0.0
	45	0.0	0.0	0.0
	46	0.0	0.0	0.0
	47	0.0	0.0	0.0
	48	0.0	0.0	0.0
	49	0.0	0.0	0.0
	50	0.0	0.0	0.0
	51	0.0	0.0	0.0
	52	0.0	0.0	0.0
	53	0.0	0.0	0.0
	54	0.0	0.0	0.0
	55	0.0	0.0	0.0
	56	0.0	0.0	0.0
	57	0.0	0.0	0.0
	58	0.0	0.0	0.0
	59	0.0	0.0	0.0
	60	0.0	0.0	0.0
	61	0.0	0.0	0.0
	62	0.0	0.0	0.0
	63	0.0	0.0	0.0

