Nickle Copper Simulation

172 	atoms
0 	bonds
0 	angles
0 	dihedrals
0 	impropers

2	atom types
0	bond types
0	angle types
0	dihedral types
0	improper types

-0.02	13.819999999999999	xlo xhi
-0.02	13.819999999999999	ylo yhi
-0.02	13.819999999999999	zlo zhi

Atoms

	1	2	-0.0038	0.0087	-0.0033
	2	2	0.0099	0.0	4.596
	3	1	-0.0002	0.0042	9.19
	4	2	0.0038	-0.004	13.7945
	5	2	-0.003	4.5986	-0.0095
	6	1	0.0018	4.5936	4.6086
	7	1	-0.0038	4.6012	9.2042
	8	2	-0.0042	4.593	13.8053
	9	2	0.0095	9.2002	-0.0052
	10	2	0.0087	9.1968	4.5909
	11	1	0.0021	9.2003	9.2059
	12	2	0.0078	9.201	13.806
	13	1	0.0005	13.8098	-0.0053
	14	2	-0.003	13.8055	4.5967
	15	2	0.003	13.8071	9.1909
	16	1	0.0077	13.8013	13.8089
	17	2	4.6052	-0.0057	0.0084
	18	2	4.6005	-0.0045	4.601
	19	1	4.6088	0.0012	9.2012
	20	1	4.5979	0.0059	13.8009
	21	2	4.6073	4.6078	-0.0003
	22	2	4.6033	4.5992	4.5969
	23	2	4.5917	4.6022	9.1904
	24	1	4.5922	4.5973	13.807
	25	2	4.5928	9.1914	0.0032
	26	2	4.5982	9.1992	4.5948
	27	1	4.5933	9.1902	9.1942
	28	1	4.6039	9.2046	13.8019
	29	2	4.5907	13.8004	-0.0086
	30	2	4.6066	13.8006	4.596
	31	2	4.596	13.7939	9.1937
	32	1	4.599	13.7993	13.8038
	33	2	9.202	-0.0065	-0.0029
	34	1	9.1938	-0.0035	4.5927
	35	2	9.1956	-0.0008	9.2051
	36	1	9.2097	-0.0072	13.7918
	37	2	9.2075	4.592	0.0037
	38	2	9.1964	4.6099	4.5999
	39	1	9.2032	4.5958	9.1966
	40	2	9.1935	4.5936	13.8073
	41	1	9.2014	9.206	0.0087
	42	1	9.2015	9.1927	4.5948
	43	1	9.2028	9.2069	9.1939
	44	2	9.2075	9.1933	13.7974
	45	1	9.2067	13.8028	0.0009
	46	2	9.1949	13.8099	4.6079
	47	2	9.2043	13.7996	9.2012
	48	1	9.1939	13.8077	13.7916
	49	2	13.8095	0.0079	-0.008
	50	1	13.7961	-0.0073	4.6015
	51	2	13.7968	0.0025	9.2012
	52	2	13.8094	0.0015	13.7991
	53	2	13.8018	4.6055	-0.005
	54	2	13.8033	4.5995	4.6012
	55	2	13.8007	4.6055	9.193
	56	1	13.8065	4.6024	13.8006
	57	2	13.8023	9.1941	0.0078
	58	1	13.7906	9.2007	4.6027
	59	1	13.8034	9.2036	9.1952
	60	2	13.7936	9.2087	13.8016
	61	2	13.8037	13.8091	0.004
	62	2	13.7984	13.8054	4.6023
	63	1	13.8008	13.7973	9.2063
	64	1	13.8018	13.7941	13.7901
	65	2	2.3003	2.2921	-0.0078
	66	1	2.2993	2.2948	4.6036
	67	2	2.2912	2.2931	9.2035
	68	1	2.307	2.3085	13.7916
	69	2	2.3	6.8923	0.006
	70	1	2.3049	6.9069	4.6081
	71	2	2.3042	6.9076	9.2055
	72	2	2.2977	6.9049	13.8005
	73	1	2.2988	11.4917	0.0016
	74	2	2.2964	11.4918	4.6042
	75	1	2.3069	11.5098	9.1984
	76	2	2.2916	11.508	13.7902
	77	2	6.8972	2.2973	-0.0029
	78	1	6.9007	2.2924	4.6019
	79	1	6.9018	2.2938	9.1961
	80	1	6.8953	2.3026	13.8099
	81	2	6.9085	6.9046	-0.0072
	82	2	6.908	6.8952	4.6023
	83	1	6.8942	6.9094	9.2084
	84	1	6.9019	6.8926	13.8015
	85	1	6.8921	11.5015	-0.003
	86	2	6.8984	11.4956	4.6065
	87	2	6.9082	11.5089	9.2009
	88	2	6.8951	11.4962	13.799
	89	2	11.5043	2.2923	-0.0033
	90	2	11.4975	2.3051	4.6072
	91	2	11.4931	2.2983	9.1964
	92	2	11.5019	2.294	13.8072
	93	2	11.5029	6.8918	-0.0019
	94	2	11.5052	6.8902	4.5982
	95	2	11.5029	6.9086	9.2071
	96	1	11.5059	6.8923	13.8032
	97	2	11.5037	11.5041	-0.0028
	98	2	11.4964	11.5025	4.5956
	99	1	11.5026	11.5035	9.2099
	100	1	11.5052	11.494	13.8077
	101	1	2.2966	0.004	2.307
	102	1	2.3011	0.0099	6.8952
	103	2	2.3046	0.0051	11.4908
	104	2	2.2934	4.6035	2.297
	105	2	2.2939	4.6032	6.8944
	106	2	2.302	4.602	11.4909
	107	2	2.3011	9.1931	2.3082
	108	2	2.2957	9.192	6.8947
	109	1	2.2938	9.1959	11.4974
	110	1	2.2947	13.8098	2.2923
	111	2	2.3031	13.8009	6.8975
	112	1	2.2921	13.8026	11.5005
	113	1	6.8943	0.0059	2.2961
	114	2	6.8915	-0.0025	6.8987
	115	2	6.9011	-0.0049	11.4971
	116	1	6.9012	4.6015	2.302
	117	2	6.8948	4.5921	6.902
	118	1	6.8983	4.592	11.5067
	119	1	6.8973	9.2032	2.2906
	120	2	6.9069	9.2026	6.8982
	121	2	6.8958	9.1973	11.5072
	122	2	6.892	13.8099	2.3082
	123	2	6.891	13.8002	6.8996
	124	1	6.9088	13.8002	11.5037
	125	2	11.491	0.002	2.3062
	126	2	11.5044	0.0078	6.901
	127	2	11.498	-0.0046	11.4949
	128	2	11.4968	4.5924	2.3089
	129	1	11.498	4.5986	6.9007
	130	1	11.4961	4.6046	11.4989
	131	1	11.4907	9.1936	2.2914
	132	1	11.5024	9.1919	6.8936
	133	2	11.4948	9.1915	11.5011
	134	1	11.5089	13.8061	2.3033
	135	1	11.5029	13.8053	6.8926
	136	1	11.4905	13.8079	11.4939
	137	2	-0.0096	2.2927	2.3
	138	1	0.002	2.3017	6.8908
	139	1	0.0054	2.2962	11.5067
	140	1	-0.0023	6.8956	2.3006
	141	2	-0.0079	6.906	6.8981
	142	2	0.0059	6.9024	11.5024
	143	2	0.0097	11.4983	2.3016
	144	2	-0.0097	11.5077	6.9042
	145	2	-0.0065	11.4991	11.4929
	146	2	4.6053	2.3048	2.3072
	147	2	4.6065	2.2968	6.9068
	148	2	4.6049	2.2903	11.4926
	149	1	4.6013	6.9075	2.3082
	150	1	4.603	6.9004	6.9095
	151	1	4.5915	6.9071	11.5015
	152	1	4.594	11.5038	2.2925
	153	2	4.5917	11.5087	6.8944
	154	2	4.6073	11.4935	11.4962
	155	2	9.1953	2.3075	2.3068
	156	2	9.1996	2.2961	6.9038
	157	2	9.2085	2.2983	11.5084
	158	2	9.2005	6.8962	2.3029
	159	1	9.209	6.9038	6.9069
	160	2	9.2086	6.9091	11.5038
	161	1	9.2096	11.497	2.308
	162	2	9.1939	11.4932	6.9019
	163	2	9.1907	11.4973	11.4904
	164	2	13.8003	2.2977	2.2979
	165	2	13.8087	2.2974	6.9007
	166	2	13.8051	2.3064	11.4923
	167	1	13.7981	6.8992	2.3076
	168	1	13.7975	6.8943	6.9
	169	2	13.801	6.8925	11.5015
	170	2	13.793	11.4901	2.2943
	171	2	13.8009	11.495	6.8977
	172	1	13.7956	11.5045	11.4982

Velocities

	1	0.0	0.0	0.0
	2	0.0	0.0	0.0
	3	0.0	0.0	0.0
	4	0.0	0.0	0.0
	5	0.0	0.0	0.0
	6	0.0	0.0	0.0
	7	0.0	0.0	0.0
	8	0.0	0.0	0.0
	9	0.0	0.0	0.0
	10	0.0	0.0	0.0
	11	0.0	0.0	0.0
	12	0.0	0.0	0.0
	13	0.0	0.0	0.0
	14	0.0	0.0	0.0
	15	0.0	0.0	0.0
	16	0.0	0.0	0.0
	17	0.0	0.0	0.0
	18	0.0	0.0	0.0
	19	0.0	0.0	0.0
	20	0.0	0.0	0.0
	21	0.0	0.0	0.0
	22	0.0	0.0	0.0
	23	0.0	0.0	0.0
	24	0.0	0.0	0.0
	25	0.0	0.0	0.0
	26	0.0	0.0	0.0
	27	0.0	0.0	0.0
	28	0.0	0.0	0.0
	29	0.0	0.0	0.0
	30	0.0	0.0	0.0
	31	0.0	0.0	0.0
	32	0.0	0.0	0.0
	33	0.0	0.0	0.0
	34	0.0	0.0	0.0
	35	0.0	0.0	0.0
	36	0.0	0.0	0.0
	37	0.0	0.0	0.0
	38	0.0	0.0	0.0
	39	0.0	0.0	0.0
	40	0.0	0.0	0.0
	41	0.0	0.0	0.0
	42	0.0	0.0	0.0
	43	0.0	0.0	0.0
	44	0.0	0.0	0.0
	45	0.0	0.0	0.0
	46	0.0	0.0	0.0
	47	0.0	0.0	0.0
	48	0.0	0.0	0.0
	49	0.0	0.0	0.0
	50	0.0	0.0	0.0
	51	0.0	0.0	0.0
	52	0.0	0.0	0.0
	53	0.0	0.0	0.0
	54	0.0	0.0	0.0
	55	0.0	0.0	0.0
	56	0.0	0.0	0.0
	57	0.0	0.0	0.0
	58	0.0	0.0	0.0
	59	0.0	0.0	0.0
	60	0.0	0.0	0.0
	61	0.0	0.0	0.0
	62	0.0	0.0	0.0
	63	0.0	0.0	0.0
	64	0.0	0.0	0.0
	65	0.0	0.0	0.0
	66	0.0	0.0	0.0
	67	0.0	0.0	0.0
	68	0.0	0.0	0.0
	69	0.0	0.0	0.0
	70	0.0	0.0	0.0
	71	0.0	0.0	0.0
	72	0.0	0.0	0.0
	73	0.0	0.0	0.0
	74	0.0	0.0	0.0
	75	0.0	0.0	0.0
	76	0.0	0.0	0.0
	77	0.0	0.0	0.0
	78	0.0	0.0	0.0
	79	0.0	0.0	0.0
	80	0.0	0.0	0.0
	81	0.0	0.0	0.0
	82	0.0	0.0	0.0
	83	0.0	0.0	0.0
	84	0.0	0.0	0.0
	85	0.0	0.0	0.0
	86	0.0	0.0	0.0
	87	0.0	0.0	0.0
	88	0.0	0.0	0.0
	89	0.0	0.0	0.0
	90	0.0	0.0	0.0
	91	0.0	0.0	0.0
	92	0.0	0.0	0.0
	93	0.0	0.0	0.0
	94	0.0	0.0	0.0
	95	0.0	0.0	0.0
	96	0.0	0.0	0.0
	97	0.0	0.0	0.0
	98	0.0	0.0	0.0
	99	0.0	0.0	0.0
	100	0.0	0.0	0.0
	101	0.0	0.0	0.0
	102	0.0	0.0	0.0
	103	0.0	0.0	0.0
	104	0.0	0.0	0.0
	105	0.0	0.0	0.0
	106	0.0	0.0	0.0
	107	0.0	0.0	0.0
	108	0.0	0.0	0.0
	109	0.0	0.0	0.0
	110	0.0	0.0	0.0
	111	0.0	0.0	0.0
	112	0.0	0.0	0.0
	113	0.0	0.0	0.0
	114	0.0	0.0	0.0
	115	0.0	0.0	0.0
	116	0.0	0.0	0.0
	117	0.0	0.0	0.0
	118	0.0	0.0	0.0
	119	0.0	0.0	0.0
	120	0.0	0.0	0.0
	121	0.0	0.0	0.0
	122	0.0	0.0	0.0
	123	0.0	0.0	0.0
	124	0.0	0.0	0.0
	125	0.0	0.0	0.0
	126	0.0	0.0	0.0
	127	0.0	0.0	0.0
	128	0.0	0.0	0.0
	129	0.0	0.0	0.0
	130	0.0	0.0	0.0
	131	0.0	0.0	0.0
	132	0.0	0.0	0.0
	133	0.0	0.0	0.0
	134	0.0	0.0	0.0
	135	0.0	0.0	0.0
	136	0.0	0.0	0.0
	137	0.0	0.0	0.0
	138	0.0	0.0	0.0
	139	0.0	0.0	0.0
	140	0.0	0.0	0.0
	141	0.0	0.0	0.0
	142	0.0	0.0	0.0
	143	0.0	0.0	0.0
	144	0.0	0.0	0.0
	145	0.0	0.0	0.0
	146	0.0	0.0	0.0
	147	0.0	0.0	0.0
	148	0.0	0.0	0.0
	149	0.0	0.0	0.0
	150	0.0	0.0	0.0
	151	0.0	0.0	0.0
	152	0.0	0.0	0.0
	153	0.0	0.0	0.0
	154	0.0	0.0	0.0
	155	0.0	0.0	0.0
	156	0.0	0.0	0.0
	157	0.0	0.0	0.0
	158	0.0	0.0	0.0
	159	0.0	0.0	0.0
	160	0.0	0.0	0.0
	161	0.0	0.0	0.0
	162	0.0	0.0	0.0
	163	0.0	0.0	0.0
	164	0.0	0.0	0.0
	165	0.0	0.0	0.0
	166	0.0	0.0	0.0
	167	0.0	0.0	0.0
	168	0.0	0.0	0.0
	169	0.0	0.0	0.0
	170	0.0	0.0	0.0
	171	0.0	0.0	0.0
	172	0.0	0.0	0.0

