Nickle Copper Simulation

666 	atoms
0 	bonds
0 	angles
0 	dihedrals
0 	impropers

2	atom types
0	bond types
0	angle types
0	dihedral types
0	improper types

-0.02	23.02	xlo xhi
-0.02	23.02	ylo yhi
-0.02	23.02	zlo zhi

Atoms

	1	1	0.0022	-0.0078	0.0045
	2	2	-0.0018	0.0063	4.6089
	3	2	0.0008	0.004	9.1933
	4	2	0.0007	0.007	13.81
	5	2	-0.0007	0.0047	18.4044
	6	1	-0.0021	0.0003	23.0029
	7	1	0.0083	4.6013	-0.0071
	8	1	-0.0072	4.5983	4.6064
	9	1	0.0031	4.5935	9.2051
	10	2	0.0008	4.6092	13.7906
	11	1	-0.0054	4.5906	18.4092
	12	1	0.0078	4.5931	23.0078
	13	2	-0.0013	9.1966	0.0096
	14	2	0.009	9.1972	4.6033
	15	1	-0.0024	9.1902	9.2092
	16	1	-0.005	9.1956	13.7961
	17	1	0.0031	9.2012	18.3945
	18	2	-0.0051	9.2063	22.9942
	19	1	0.0008	13.8058	-0.0036
	20	2	-0.0059	13.81	4.5987
	21	2	-0.0057	13.7975	9.1913
	22	2	0.0002	13.7949	13.8009
	23	2	0.0038	13.8083	18.4043
	24	2	-0.0097	13.8071	23.0012
	25	1	0.0056	18.4012	-0.0094
	26	2	-0.0093	18.3953	4.5983
	27	2	0.0067	18.3967	9.2059
	28	2	0.0067	18.3998	13.7944
	29	1	-0.0043	18.3943	18.4044
	30	1	0.002	18.3904	22.9912
	31	2	-0.0014	22.993	-0.0016
	32	2	0.0063	23.0044	4.6058
	33	2	0.0081	22.9919	9.2018
	34	1	0.0028	23.0066	13.7903
	35	2	0.0065	22.9912	18.4057
	36	1	-0.009	23.0049	23.0037
	37	1	4.5965	-0.0077	-0.0034
	38	1	4.5938	0.0012	4.5959
	39	1	4.6064	0.0009	9.2051
	40	1	4.6098	0.0058	13.8092
	41	1	4.5952	-0.0064	18.3946
	42	2	4.593	0.0019	22.9949
	43	2	4.6074	4.5964	-0.0008
	44	2	4.6066	4.5944	4.6086
	45	1	4.5953	4.6093	9.2077
	46	2	4.5964	4.6045	13.7986
	47	2	4.5993	4.5909	18.3953
	48	1	4.6002	4.6006	23.005
	49	2	4.5981	9.2086	0.0036
	50	2	4.5927	9.2059	4.5924
	51	1	4.5918	9.1964	9.2046
	52	1	4.6069	9.19	13.8007
	53	2	4.6074	9.2014	18.4069
	54	2	4.6093	9.1952	23.0044
	55	1	4.598	13.8067	0.0009
	56	2	4.6061	13.794	4.5903
	57	2	4.6078	13.8072	9.1958
	58	2	4.5998	13.7964	13.808
	59	1	4.6081	13.7971	18.3955
	60	1	4.6026	13.8049	23.0008
	61	2	4.5967	18.3989	-0.0046
	62	2	4.6005	18.4017	4.5956
	63	2	4.5924	18.3918	9.2071
	64	1	4.593	18.4037	13.8064
	65	2	4.6064	18.395	18.3958
	66	2	4.5915	18.4016	22.9901
	67	2	4.6038	22.9921	0.0079
	68	2	4.5997	22.9999	4.5927
	69	2	4.5973	23.006	9.1996
	70	2	4.5988	23.0035	13.793
	71	2	4.6085	22.9906	18.3928
	72	1	4.5955	22.992	23.0056
	73	2	9.2066	-0.0012	0.0001
	74	2	9.2016	-0.003	4.5921
	75	1	9.1994	0.0013	9.2084
	76	2	9.2077	-0.0054	13.8083
	77	1	9.2048	0.0013	18.392
	78	2	9.1965	0.0017	23.0036
	79	2	9.2048	4.6089	-0.0016
	80	2	9.2002	4.6015	4.5923
	81	2	9.2086	4.6004	9.1922
	82	2	9.1914	4.6088	13.7948
	83	2	9.2062	4.6002	18.401
	84	2	9.2004	4.5979	23.0009
	85	2	9.2046	9.1924	0.0
	86	2	9.1942	9.1982	4.6026
	87	2	9.2017	9.1927	9.1917
	88	2	9.1943	9.198	13.796
	89	2	9.1913	9.196	18.3999
	90	2	9.1949	9.1933	23.0023
	91	2	9.2061	13.7905	-0.004
	92	2	9.2093	13.7954	4.6007
	93	1	9.2049	13.8008	9.2055
	94	1	9.1934	13.8085	13.7925
	95	2	9.1988	13.8067	18.4058
	96	2	9.192	13.7974	22.9908
	97	1	9.2037	18.3958	0.0017
	98	2	9.205	18.4064	4.5922
	99	1	9.1903	18.3954	9.1985
	100	2	9.2087	18.4087	13.7959
	101	2	9.1958	18.3905	18.4093
	102	1	9.2037	18.4085	22.9978
	103	2	9.2015	23.0032	-0.0064
	104	2	9.2047	22.9967	4.5996
	105	2	9.192	22.9905	9.1935
	106	1	9.2012	23.0083	13.7936
	107	1	9.1964	23.0021	18.3957
	108	1	9.1903	22.995	23.0002
	109	2	13.7998	0.0048	-0.0093
	110	2	13.8039	-0.0052	4.6031
	111	2	13.7992	0.0049	9.1964
	112	1	13.8022	-0.0017	13.7995
	113	2	13.796	0.0053	18.4086
	114	1	13.8048	0.008	22.9962
	115	2	13.7966	4.6069	-0.0029
	116	2	13.7943	4.5953	4.5918
	117	2	13.806	4.5905	9.2064
	118	2	13.8089	4.5902	13.8049
	119	2	13.793	4.5982	18.4071
	120	1	13.8006	4.6065	23.0033
	121	1	13.8032	9.1991	-0.0083
	122	2	13.8044	9.2067	4.5975
	123	2	13.8031	9.202	9.1949
	124	2	13.7989	9.203	13.7991
	125	2	13.8006	9.2041	18.3942
	126	2	13.796	9.2053	22.9925
	127	2	13.7961	13.7967	0.0046
	128	1	13.803	13.7961	4.5915
	129	2	13.809	13.7965	9.1974
	130	2	13.8057	13.797	13.7982
	131	2	13.8093	13.8018	18.4052
	132	1	13.7904	13.8031	22.992
	133	1	13.7955	18.4082	-0.0096
	134	2	13.7941	18.4091	4.6067
	135	2	13.7993	18.3987	9.1959
	136	2	13.7997	18.4071	13.7937
	137	2	13.7924	18.4024	18.4045
	138	2	13.8002	18.3919	23.0002
	139	2	13.8045	23.0015	-0.0047
	140	2	13.7985	23.0068	4.6001
	141	2	13.7927	23.0044	9.2068
	142	2	13.8015	22.9914	13.8036
	143	2	13.798	23.0044	18.3936
	144	2	13.8071	23.0059	23.0017
	145	1	18.4072	-0.0079	0.0029
	146	1	18.3952	-0.0033	4.5989
	147	2	18.3953	-0.0099	9.1956
	148	1	18.394	-0.0022	13.8029
	149	2	18.4088	-0.0026	18.3982
	150	1	18.4062	-0.01	22.9997
	151	2	18.3977	4.5969	0.0042
	152	2	18.3987	4.5998	4.5924
	153	2	18.3914	4.598	9.2053
	154	2	18.3912	4.6013	13.7954
	155	2	18.3941	4.6015	18.3965
	156	2	18.4065	4.592	22.9919
	157	2	18.4091	9.2015	0.0046
	158	2	18.3957	9.2026	4.6055
	159	2	18.3974	9.1909	9.2063
	160	2	18.4034	9.1901	13.806
	161	2	18.399	9.2061	18.3987
	162	2	18.4007	9.1961	22.9936
	163	2	18.391	13.8014	-0.003
	164	1	18.3943	13.806	4.6099
	165	2	18.3971	13.8051	9.2046
	166	1	18.3947	13.8016	13.7913
	167	2	18.4079	13.7998	18.3997
	168	1	18.4086	13.7938	23.0039
	169	2	18.4035	18.3986	0.006
	170	1	18.3995	18.3907	4.6004
	171	1	18.4069	18.4081	9.2057
	172	1	18.4077	18.4017	13.8037
	173	2	18.4045	18.3906	18.3917
	174	1	18.4078	18.4045	23.0004
	175	2	18.4018	22.991	0.0008
	176	2	18.4036	22.9996	4.5938
	177	1	18.3973	22.9954	9.2073
	178	2	18.401	22.9917	13.7957
	179	2	18.3908	23.0022	18.3969
	180	2	18.3913	23.0018	23.0055
	181	2	22.9948	-0.003	0.0061
	182	1	22.9966	-0.0089	4.5986
	183	2	23.0019	-0.0032	9.2068
	184	1	23.0064	-0.0073	13.7967
	185	2	22.9983	-0.0045	18.4077
	186	2	23.0068	-0.0045	22.9992
	187	2	23.0062	4.6089	0.0005
	188	2	22.9917	4.6039	4.6017
	189	2	22.9948	4.6047	9.2014
	190	1	23.0089	4.5999	13.794
	191	1	22.9994	4.6011	18.4092
	192	2	23.0016	4.6071	22.9934
	193	1	23.0076	9.1949	0.0087
	194	1	23.0088	9.2067	4.6045
	195	2	22.9949	9.201	9.2074
	196	1	23.002	9.2064	13.8011
	197	2	22.9928	9.1959	18.4095
	198	2	22.9932	9.1929	23.005
	199	2	22.9928	13.7937	-0.0041
	200	1	22.9985	13.8002	4.6058
	201	1	23.0011	13.8073	9.1937
	202	2	22.9941	13.8089	13.7997
	203	1	22.9982	13.7922	18.398
	204	1	22.9928	13.8079	23.0008
	205	1	23.0002	18.4087	-0.0056
	206	1	23.0007	18.3928	4.5989
	207	1	23.0037	18.407	9.2039
	208	2	22.995	18.4084	13.8063
	209	1	22.9959	18.3972	18.3905
	210	1	22.992	18.4014	23.0096
	211	2	22.9956	22.9923	0.0094
	212	2	23.0049	22.9964	4.6029
	213	2	23.0092	23.0028	9.1937
	214	2	23.0032	23.0003	13.7988
	215	2	22.9929	22.9996	18.4055
	216	1	22.9952	22.9944	23.0008
	217	2	2.2984	2.303	-0.007
	218	1	2.2957	2.2955	4.5996
	219	2	2.2977	2.2968	9.1904
	220	1	2.3076	2.3026	13.8011
	221	1	2.2983	2.3032	18.3912
	222	2	2.3097	2.2934	23.0009
	223	2	2.2995	6.8993	-0.004
	224	2	2.2975	6.9095	4.6014
	225	2	2.3012	6.9098	9.1918
	226	1	2.3098	6.9056	13.7901
	227	2	2.2962	6.9048	18.4092
	228	1	2.3048	6.8936	23.0035
	229	2	2.2911	11.5059	0.0091
	230	2	2.298	11.5092	4.6003
	231	2	2.3024	11.4931	9.2063
	232	2	2.2968	11.4984	13.8057
	233	1	2.3005	11.5052	18.4072
	234	1	2.3008	11.5068	23.0054
	235	1	2.2902	16.1018	-0.0074
	236	2	2.293	16.1048	4.5901
	237	2	2.3054	16.1054	9.1965
	238	2	2.2967	16.1048	13.7906
	239	1	2.3012	16.0958	18.4027
	240	2	2.3067	16.098	22.9998
	241	1	2.3009	20.6953	-0.006
	242	2	2.31	20.7052	4.5996
	243	2	2.3037	20.6965	9.1982
	244	1	2.2904	20.7059	13.8038
	245	1	2.3094	20.6912	18.4095
	246	2	2.3074	20.6915	22.9924
	247	2	6.9011	2.295	0.0049
	248	2	6.8905	2.3084	4.5983
	249	2	6.8946	2.3043	9.2063
	250	2	6.8947	2.309	13.7983
	251	2	6.9079	2.306	18.3991
	252	2	6.9084	2.3087	23.0097
	253	2	6.906	6.8939	0.0049
	254	2	6.8974	6.9029	4.5976
	255	2	6.9066	6.8907	9.1938
	256	2	6.9087	6.8983	13.8062
	257	2	6.8952	6.9054	18.3979
	258	2	6.9022	6.8937	22.9937
	259	2	6.8961	11.497	-0.0065
	260	1	6.893	11.4948	4.6039
	261	1	6.8921	11.4921	9.2006
	262	2	6.8992	11.5004	13.8081
	263	2	6.8908	11.4982	18.4095
	264	2	6.9074	11.5009	22.9993
	265	1	6.8975	16.109	0.0032
	266	2	6.8908	16.095	4.6085
	267	2	6.905	16.1087	9.1967
	268	2	6.9051	16.108	13.795
	269	2	6.9078	16.096	18.4044
	270	2	6.9004	16.0958	23.0065
	271	2	6.9039	20.7092	0.0034
	272	1	6.8943	20.7089	4.5983
	273	2	6.8906	20.698	9.192
	274	1	6.9029	20.6958	13.8041
	275	2	6.9036	20.7046	18.4099
	276	2	6.8933	20.7058	22.9933
	277	2	11.5084	2.3084	0.0041
	278	2	11.5075	2.2964	4.6089
	279	1	11.5035	2.2992	9.208
	280	2	11.5049	2.3042	13.8087
	281	2	11.5015	2.2968	18.3905
	282	1	11.5088	2.3058	22.9978
	283	2	11.4954	6.9053	0.0047
	284	2	11.4924	6.8901	4.6001
	285	2	11.4934	6.8996	9.2081
	286	1	11.4975	6.9021	13.7923
	287	2	11.5063	6.902	18.3982
	288	2	11.4991	6.9039	23.0042
	289	1	11.5047	11.4952	-0.0008
	290	1	11.4936	11.5014	4.6075
	291	2	11.5017	11.503	9.2085
	292	2	11.5013	11.5031	13.804
	293	2	11.5087	11.4972	18.3922
	294	2	11.5086	11.5055	22.9913
	295	2	11.5075	16.0989	-0.0075
	296	1	11.5052	16.0964	4.5945
	297	1	11.4941	16.0973	9.2041
	298	2	11.499	16.1035	13.7982
	299	2	11.5025	16.1023	18.4013
	300	2	11.4946	16.1076	22.9969
	301	2	11.5065	20.7069	0.0066
	302	1	11.495	20.7098	4.5923
	303	2	11.4941	20.6974	9.1987
	304	1	11.5082	20.6913	13.794
	305	1	11.5029	20.6934	18.4003
	306	1	11.5081	20.7032	22.9947
	307	1	16.0946	2.3054	0.0093
	308	2	16.0937	2.3096	4.6001
	309	1	16.0955	2.3011	9.1996
	310	2	16.0913	2.2997	13.8064
	311	2	16.0929	2.3019	18.4014
	312	2	16.1079	2.3098	23.0033
	313	1	16.1004	6.8995	0.0054
	314	2	16.1043	6.9089	4.6066
	315	1	16.1064	6.9018	9.208
	316	2	16.0981	6.8982	13.7953
	317	1	16.0906	6.8915	18.4057
	318	2	16.1091	6.8955	23.0058
	319	1	16.0974	11.4957	-0.0026
	320	2	16.1027	11.5087	4.6091
	321	2	16.0925	11.4926	9.2068
	322	2	16.0991	11.502	13.7931
	323	2	16.0943	11.5082	18.4006
	324	1	16.0919	11.5069	22.9976
	325	2	16.0963	16.1041	0.0051
	326	2	16.0909	16.1048	4.5978
	327	2	16.0923	16.0947	9.2042
	328	2	16.0983	16.0972	13.7923
	329	1	16.1062	16.1008	18.4085
	330	2	16.1074	16.0969	22.9987
	331	1	16.1044	20.692	0.0041
	332	1	16.0939	20.6983	4.5975
	333	2	16.1078	20.7077	9.2062
	334	1	16.1075	20.6928	13.7946
	335	2	16.0906	20.6963	18.4079
	336	2	16.1034	20.6988	22.9903
	337	2	20.7049	2.2976	0.0019
	338	2	20.6945	2.3058	4.5942
	339	1	20.6917	2.2952	9.2094
	340	2	20.6994	2.2997	13.7964
	341	1	20.6912	2.3027	18.4056
	342	2	20.7045	2.2912	23.0088
	343	1	20.7073	6.8975	0.0068
	344	2	20.7061	6.8959	4.5946
	345	2	20.7077	6.8911	9.2024
	346	1	20.7013	6.8943	13.8049
	347	2	20.6985	6.9049	18.3986
	348	2	20.7001	6.9018	22.999
	349	1	20.7042	11.5083	0.0058
	350	1	20.7003	11.4902	4.6059
	351	2	20.6985	11.5064	9.1978
	352	2	20.6951	11.5067	13.7903
	353	2	20.6909	11.5048	18.3977
	354	2	20.6952	11.5077	22.9995
	355	2	20.6975	16.1014	-0.0079
	356	2	20.7009	16.0965	4.599
	357	1	20.698	16.0991	9.2022
	358	2	20.6982	16.1	13.7963
	359	2	20.7087	16.102	18.3948
	360	2	20.7095	16.1097	23.0097
	361	1	20.7007	20.7083	0.0095
	362	2	20.704	20.6968	4.5965
	363	1	20.7087	20.6929	9.2049
	364	2	20.6945	20.7018	13.8027
	365	2	20.7082	20.6991	18.4046
	366	1	20.7054	20.6923	23.0028
	367	2	2.2911	-0.0009	2.3032
	368	1	2.3069	-0.0084	6.8949
	369	1	2.3021	-0.0064	11.5008
	370	1	2.2955	0.0069	16.1042
	371	2	2.2926	0.0039	20.6946
	372	2	2.3095	4.6007	2.2901
	373	1	2.2947	4.6012	6.8993
	374	2	2.2935	4.5934	11.5066
	375	2	2.3076	4.6052	16.1068
	376	1	2.3094	4.6029	20.6986
	377	2	2.3025	9.2063	2.3019
	378	2	2.301	9.2083	6.9014
	379	1	2.3014	9.194	11.4992
	380	2	2.3035	9.1992	16.1085
	381	2	2.2954	9.1933	20.6911
	382	1	2.3078	13.8095	2.2961
	383	1	2.2961	13.8065	6.9065
	384	2	2.3006	13.8061	11.5015
	385	2	2.3061	13.7938	16.1074
	386	2	2.2944	13.7907	20.7075
	387	1	2.3054	18.4006	2.2922
	388	2	2.2932	18.4019	6.9095
	389	1	2.2909	18.393	11.4916
	390	1	2.3075	18.393	16.0912
	391	2	2.2934	18.3908	20.6988
	392	1	2.2987	23.0058	2.3074
	393	2	2.2996	23.0098	6.8964
	394	1	2.2979	23.0017	11.4946
	395	2	2.2913	23.0006	16.1073
	396	2	2.305	22.9942	20.6949
	397	2	6.9022	0.0022	2.3079
	398	2	6.8998	-0.0022	6.8963
	399	1	6.8981	0.007	11.5068
	400	2	6.8985	-0.0002	16.0912
	401	1	6.8902	0.0077	20.7066
	402	1	6.905	4.5964	2.3027
	403	1	6.8945	4.5956	6.9072
	404	2	6.8995	4.6061	11.5094
	405	1	6.8927	4.6051	16.0994
	406	2	6.9085	4.5947	20.6996
	407	2	6.8963	9.2005	2.2976
	408	2	6.903	9.1925	6.899
	409	2	6.8993	9.203	11.4918
	410	2	6.9005	9.1913	16.109
	411	2	6.9099	9.2002	20.6993
	412	1	6.9012	13.7948	2.2919
	413	2	6.904	13.8048	6.8965
	414	2	6.9096	13.8066	11.4912
	415	1	6.8956	13.7993	16.1025
	416	2	6.9063	13.8016	20.6987
	417	2	6.9025	18.4001	2.2968
	418	2	6.892	18.3931	6.9012
	419	1	6.8942	18.3957	11.4999
	420	1	6.9037	18.395	16.1092
	421	2	6.9009	18.3964	20.6973
	422	2	6.8948	22.9952	2.3097
	423	2	6.8953	22.9905	6.9086
	424	1	6.91	22.9991	11.4976
	425	2	6.9024	22.9971	16.1032
	426	2	6.905	22.9973	20.707
	427	1	11.4929	-0.0029	2.293
	428	2	11.5074	0.0055	6.8923
	429	2	11.5066	0.0079	11.4983
	430	2	11.5045	0.003	16.1094
	431	1	11.4964	-0.0041	20.6906
	432	2	11.5046	4.6056	2.308
	433	1	11.4916	4.5942	6.8989
	434	2	11.5042	4.6033	11.4994
	435	2	11.4908	4.5919	16.1096
	436	1	11.4961	4.5983	20.7034
	437	2	11.5035	9.2092	2.2912
	438	2	11.494	9.1956	6.8902
	439	1	11.4907	9.2088	11.5077
	440	1	11.5001	9.1978	16.0918
	441	2	11.4949	9.2013	20.6956
	442	2	11.4978	13.793	2.3018
	443	1	11.5051	13.7959	6.9012
	444	1	11.4978	13.794	11.5093
	445	2	11.505	13.796	16.0994
	446	1	11.5001	13.8098	20.701
	447	2	11.5076	18.4003	2.2952
	448	2	11.4905	18.397	6.9052
	449	2	11.5078	18.3995	11.4994
	450	1	11.4962	18.4056	16.0947
	451	1	11.5009	18.4057	20.6968
	452	2	11.4973	23.0049	2.2932
	453	2	11.5003	23.0058	6.8999
	454	2	11.4959	23.003	11.492
	455	2	11.5049	23.0032	16.0987
	456	2	11.5073	22.9928	20.709
	457	2	16.0948	-0.0064	2.3041
	458	2	16.106	0.0037	6.8927
	459	2	16.103	0.0034	11.4941
	460	1	16.0971	-0.0038	16.1097
	461	2	16.1047	-0.0065	20.7099
	462	1	16.0905	4.6063	2.307
	463	1	16.0912	4.5962	6.9078
	464	2	16.0994	4.6025	11.5077
	465	1	16.0972	4.5909	16.0938
	466	1	16.0946	4.5968	20.6974
	467	1	16.0945	9.1982	2.3042
	468	1	16.0989	9.1925	6.9095
	469	2	16.1093	9.2089	11.5059
	470	1	16.1066	9.2039	16.1007
	471	2	16.0932	9.2086	20.7057
	472	2	16.0946	13.8005	2.2991
	473	2	16.0973	13.7962	6.8901
	474	2	16.1042	13.8081	11.5023
	475	2	16.0921	13.7926	16.1016
	476	1	16.1056	13.8069	20.7098
	477	1	16.0964	18.4065	2.3005
	478	1	16.1049	18.4017	6.8997
	479	2	16.1036	18.4068	11.4977
	480	2	16.0906	18.395	16.1094
	481	1	16.0955	18.3927	20.702
	482	1	16.1039	23.0049	2.2908
	483	2	16.09	23.0029	6.9094
	484	2	16.0998	22.9969	11.4984
	485	1	16.0957	22.9944	16.0943
	486	2	16.0923	23.0093	20.705
	487	2	20.6931	-0.0013	2.3015
	488	2	20.7056	0.0001	6.9053
	489	2	20.6985	0.0074	11.5062
	490	1	20.7053	-0.0091	16.0933
	491	1	20.6911	0.0066	20.6932
	492	2	20.7036	4.6077	2.3072
	493	2	20.6936	4.5942	6.8948
	494	2	20.6999	4.6005	11.509
	495	2	20.6984	4.5921	16.0927
	496	1	20.708	4.5965	20.6928
	497	2	20.6917	9.2065	2.306
	498	2	20.6977	9.2054	6.8943
	499	1	20.7019	9.1929	11.5087
	500	1	20.7094	9.1979	16.0916
	501	2	20.7032	9.2042	20.7052
	502	2	20.6957	13.81	2.3046
	503	2	20.6981	13.8065	6.9074
	504	2	20.702	13.8093	11.499
	505	2	20.6972	13.7923	16.0962
	506	2	20.7087	13.8061	20.6919
	507	2	20.7084	18.4091	2.2941
	508	1	20.6996	18.4046	6.9011
	509	2	20.6965	18.4092	11.4947
	510	2	20.6996	18.3991	16.1048
	511	2	20.7046	18.391	20.7059
	512	2	20.6914	23.0058	2.2925
	513	2	20.6962	23.0092	6.9019
	514	2	20.6959	23.0052	11.4972
	515	2	20.7022	23.0009	16.1074
	516	1	20.7089	23.0072	20.7001
	517	1	-0.0015	2.2991	2.3069
	518	1	-0.0053	2.3004	6.9081
	519	1	-0.0011	2.3062	11.5042
	520	2	0.0088	2.2921	16.1069
	521	2	0.0096	2.3026	20.7003
	522	1	0.0069	6.903	2.3099
	523	2	-0.0039	6.9	6.9082
	524	1	0.0011	6.9048	11.5038
	525	2	0.01	6.906	16.0902
	526	1	0.0091	6.8958	20.7058
	527	2	-0.0048	11.5042	2.3051
	528	1	0.0038	11.5086	6.8968
	529	1	0.0064	11.4928	11.4993
	530	2	-0.0026	11.4976	16.0989
	531	1	0.0092	11.492	20.6939
	532	2	-0.0015	16.0963	2.3047
	533	1	-0.0036	16.0914	6.8981
	534	1	-0.0013	16.1035	11.5074
	535	1	0.0012	16.1065	16.0963
	536	2	-0.0046	16.0977	20.699
	537	1	-0.0062	20.7024	2.2939
	538	1	-0.0065	20.6964	6.8978
	539	2	-0.0073	20.6989	11.5013
	540	2	-0.0087	20.7016	16.0959
	541	1	-0.0032	20.6914	20.7058
	542	2	4.5959	2.3063	2.3
	543	1	4.5938	2.3009	6.8942
	544	2	4.6056	2.3022	11.506
	545	2	4.5936	2.3053	16.1039
	546	2	4.5917	2.2972	20.7032
	547	2	4.5907	6.8971	2.3074
	548	1	4.6044	6.8949	6.8989
	549	2	4.5988	6.8986	11.5009
	550	2	4.5973	6.901	16.1099
	551	1	4.6081	6.8938	20.6909
	552	2	4.6049	11.4978	2.3042
	553	1	4.6082	11.4913	6.9079
	554	1	4.5997	11.5013	11.5095
	555	1	4.5919	11.4978	16.1087
	556	2	4.6096	11.4978	20.6951
	557	1	4.5984	16.0941	2.2957
	558	2	4.597	16.0931	6.8932
	559	1	4.6009	16.1047	11.5017
	560	2	4.5911	16.0999	16.097
	561	1	4.6066	16.0966	20.6921
	562	2	4.6068	20.7021	2.3005
	563	1	4.6041	20.6962	6.8904
	564	2	4.5932	20.6939	11.5004
	565	2	4.5904	20.6979	16.0964
	566	1	4.5939	20.6913	20.6996
	567	1	9.1911	2.3014	2.3031
	568	2	9.2042	2.2932	6.9055
	569	1	9.1923	2.2904	11.5092
	570	1	9.1922	2.3024	16.1099
	571	2	9.2032	2.3082	20.6901
	572	1	9.1936	6.891	2.2941
	573	1	9.1947	6.9001	6.892
	574	1	9.1987	6.8972	11.4983
	575	1	9.1989	6.8924	16.1066
	576	2	9.1948	6.8968	20.6979
	577	2	9.1948	11.5068	2.2954
	578	1	9.2028	11.4948	6.9019
	579	2	9.194	11.4936	11.4976
	580	2	9.2026	11.5061	16.0958
	581	2	9.2084	11.5098	20.7065
	582	2	9.1947	16.0973	2.3034
	583	2	9.1915	16.094	6.9043
	584	2	9.1968	16.1026	11.502
	585	2	9.1987	16.0922	16.1009
	586	1	9.191	16.0951	20.6996
	587	2	9.2094	20.6976	2.3019
	588	2	9.2015	20.7053	6.8947
	589	2	9.1972	20.7068	11.4941
	590	2	9.1969	20.6948	16.104
	591	1	9.2009	20.6992	20.6942
	592	1	13.8076	2.306	2.3072
	593	2	13.8025	2.2946	6.9096
	594	2	13.7917	2.2964	11.5049
	595	2	13.7982	2.2978	16.1053
	596	2	13.7907	2.3014	20.7034
	597	2	13.8053	6.9058	2.2912
	598	2	13.805	6.8931	6.9014
	599	2	13.7909	6.9027	11.5022
	600	2	13.8055	6.8969	16.1062
	601	2	13.8061	6.8968	20.7091
	602	1	13.8019	11.5006	2.2979
	603	2	13.8039	11.4987	6.9077
	604	2	13.7986	11.5065	11.5025
	605	2	13.7914	11.5064	16.0966
	606	2	13.7984	11.4986	20.7049
	607	2	13.7905	16.0919	2.2908
	608	2	13.8071	16.0944	6.9036
	609	2	13.7908	16.1062	11.49
	610	2	13.8055	16.099	16.1026
	611	2	13.7943	16.107	20.7006
	612	1	13.798	20.6973	2.2932
	613	1	13.8095	20.699	6.899
	614	1	13.7909	20.705	11.4965
	615	2	13.8068	20.6996	16.0916
	616	1	13.8002	20.6971	20.6974
	617	1	18.3957	2.295	2.2995
	618	1	18.4018	2.3065	6.8911
	619	2	18.4003	2.2939	11.4944
	620	2	18.3911	2.2997	16.0961
	621	2	18.4044	2.3007	20.7018
	622	2	18.3937	6.9	2.307
	623	2	18.3981	6.9058	6.8983
	624	2	18.4062	6.8904	11.502
	625	1	18.397	6.8979	16.1073
	626	1	18.3983	6.9091	20.6934
	627	2	18.4016	11.4998	2.298
	628	2	18.4004	11.4901	6.8974
	629	2	18.3949	11.4965	11.4981
	630	2	18.3928	11.506	16.1047
	631	1	18.4065	11.5018	20.699
	632	2	18.394	16.104	2.3052
	633	1	18.4063	16.1011	6.8978
	634	2	18.4009	16.0997	11.5019
	635	1	18.403	16.096	16.092
	636	2	18.3975	16.0969	20.7064
	637	1	18.3972	20.7014	2.2932
	638	1	18.4018	20.6999	6.8901
	639	2	18.4071	20.7064	11.4906
	640	2	18.3974	20.6911	16.1004
	641	1	18.3966	20.7005	20.6928
	642	2	23.0006	2.2937	2.2938
	643	1	22.9963	2.2958	6.8916
	644	1	22.9913	2.2987	11.5016
	645	1	23.0082	2.3017	16.0956
	646	2	22.9916	2.2978	20.6991
	647	2	23.009	6.8974	2.3033
	648	2	23.0033	6.8952	6.8924
	649	1	22.9998	6.9011	11.5024
	650	2	22.9992	6.9083	16.1073
	651	1	23.003	6.8944	20.7047
	652	1	22.9926	11.491	2.2934
	653	2	22.9974	11.4906	6.8936
	654	2	22.9999	11.4961	11.4936
	655	2	23.003	11.4917	16.0944
	656	2	22.9989	11.4952	20.7096
	657	1	22.991	16.0998	2.3013
	658	2	22.998	16.1067	6.9037
	659	2	22.9968	16.1089	11.4901
	660	2	23.0061	16.0971	16.092
	661	2	23.009	16.1074	20.7007
	662	1	23.0056	20.7049	2.307
	663	2	22.998	20.7098	6.9029
	664	1	22.9929	20.6989	11.5013
	665	2	23.0094	20.6914	16.0976
	666	2	23.0084	20.7002	20.7013

Velocities

	1	0.0	0.0	0.0
	2	0.0	0.0	0.0
	3	0.0	0.0	0.0
	4	0.0	0.0	0.0
	5	0.0	0.0	0.0
	6	0.0	0.0	0.0
	7	0.0	0.0	0.0
	8	0.0	0.0	0.0
	9	0.0	0.0	0.0
	10	0.0	0.0	0.0
	11	0.0	0.0	0.0
	12	0.0	0.0	0.0
	13	0.0	0.0	0.0
	14	0.0	0.0	0.0
	15	0.0	0.0	0.0
	16	0.0	0.0	0.0
	17	0.0	0.0	0.0
	18	0.0	0.0	0.0
	19	0.0	0.0	0.0
	20	0.0	0.0	0.0
	21	0.0	0.0	0.0
	22	0.0	0.0	0.0
	23	0.0	0.0	0.0
	24	0.0	0.0	0.0
	25	0.0	0.0	0.0
	26	0.0	0.0	0.0
	27	0.0	0.0	0.0
	28	0.0	0.0	0.0
	29	0.0	0.0	0.0
	30	0.0	0.0	0.0
	31	0.0	0.0	0.0
	32	0.0	0.0	0.0
	33	0.0	0.0	0.0
	34	0.0	0.0	0.0
	35	0.0	0.0	0.0
	36	0.0	0.0	0.0
	37	0.0	0.0	0.0
	38	0.0	0.0	0.0
	39	0.0	0.0	0.0
	40	0.0	0.0	0.0
	41	0.0	0.0	0.0
	42	0.0	0.0	0.0
	43	0.0	0.0	0.0
	44	0.0	0.0	0.0
	45	0.0	0.0	0.0
	46	0.0	0.0	0.0
	47	0.0	0.0	0.0
	48	0.0	0.0	0.0
	49	0.0	0.0	0.0
	50	0.0	0.0	0.0
	51	0.0	0.0	0.0
	52	0.0	0.0	0.0
	53	0.0	0.0	0.0
	54	0.0	0.0	0.0
	55	0.0	0.0	0.0
	56	0.0	0.0	0.0
	57	0.0	0.0	0.0
	58	0.0	0.0	0.0
	59	0.0	0.0	0.0
	60	0.0	0.0	0.0
	61	0.0	0.0	0.0
	62	0.0	0.0	0.0
	63	0.0	0.0	0.0
	64	0.0	0.0	0.0
	65	0.0	0.0	0.0
	66	0.0	0.0	0.0
	67	0.0	0.0	0.0
	68	0.0	0.0	0.0
	69	0.0	0.0	0.0
	70	0.0	0.0	0.0
	71	0.0	0.0	0.0
	72	0.0	0.0	0.0
	73	0.0	0.0	0.0
	74	0.0	0.0	0.0
	75	0.0	0.0	0.0
	76	0.0	0.0	0.0
	77	0.0	0.0	0.0
	78	0.0	0.0	0.0
	79	0.0	0.0	0.0
	80	0.0	0.0	0.0
	81	0.0	0.0	0.0
	82	0.0	0.0	0.0
	83	0.0	0.0	0.0
	84	0.0	0.0	0.0
	85	0.0	0.0	0.0
	86	0.0	0.0	0.0
	87	0.0	0.0	0.0
	88	0.0	0.0	0.0
	89	0.0	0.0	0.0
	90	0.0	0.0	0.0
	91	0.0	0.0	0.0
	92	0.0	0.0	0.0
	93	0.0	0.0	0.0
	94	0.0	0.0	0.0
	95	0.0	0.0	0.0
	96	0.0	0.0	0.0
	97	0.0	0.0	0.0
	98	0.0	0.0	0.0
	99	0.0	0.0	0.0
	100	0.0	0.0	0.0
	101	0.0	0.0	0.0
	102	0.0	0.0	0.0
	103	0.0	0.0	0.0
	104	0.0	0.0	0.0
	105	0.0	0.0	0.0
	106	0.0	0.0	0.0
	107	0.0	0.0	0.0
	108	0.0	0.0	0.0
	109	0.0	0.0	0.0
	110	0.0	0.0	0.0
	111	0.0	0.0	0.0
	112	0.0	0.0	0.0
	113	0.0	0.0	0.0
	114	0.0	0.0	0.0
	115	0.0	0.0	0.0
	116	0.0	0.0	0.0
	117	0.0	0.0	0.0
	118	0.0	0.0	0.0
	119	0.0	0.0	0.0
	120	0.0	0.0	0.0
	121	0.0	0.0	0.0
	122	0.0	0.0	0.0
	123	0.0	0.0	0.0
	124	0.0	0.0	0.0
	125	0.0	0.0	0.0
	126	0.0	0.0	0.0
	127	0.0	0.0	0.0
	128	0.0	0.0	0.0
	129	0.0	0.0	0.0
	130	0.0	0.0	0.0
	131	0.0	0.0	0.0
	132	0.0	0.0	0.0
	133	0.0	0.0	0.0
	134	0.0	0.0	0.0
	135	0.0	0.0	0.0
	136	0.0	0.0	0.0
	137	0.0	0.0	0.0
	138	0.0	0.0	0.0
	139	0.0	0.0	0.0
	140	0.0	0.0	0.0
	141	0.0	0.0	0.0
	142	0.0	0.0	0.0
	143	0.0	0.0	0.0
	144	0.0	0.0	0.0
	145	0.0	0.0	0.0
	146	0.0	0.0	0.0
	147	0.0	0.0	0.0
	148	0.0	0.0	0.0
	149	0.0	0.0	0.0
	150	0.0	0.0	0.0
	151	0.0	0.0	0.0
	152	0.0	0.0	0.0
	153	0.0	0.0	0.0
	154	0.0	0.0	0.0
	155	0.0	0.0	0.0
	156	0.0	0.0	0.0
	157	0.0	0.0	0.0
	158	0.0	0.0	0.0
	159	0.0	0.0	0.0
	160	0.0	0.0	0.0
	161	0.0	0.0	0.0
	162	0.0	0.0	0.0
	163	0.0	0.0	0.0
	164	0.0	0.0	0.0
	165	0.0	0.0	0.0
	166	0.0	0.0	0.0
	167	0.0	0.0	0.0
	168	0.0	0.0	0.0
	169	0.0	0.0	0.0
	170	0.0	0.0	0.0
	171	0.0	0.0	0.0
	172	0.0	0.0	0.0
	173	0.0	0.0	0.0
	174	0.0	0.0	0.0
	175	0.0	0.0	0.0
	176	0.0	0.0	0.0
	177	0.0	0.0	0.0
	178	0.0	0.0	0.0
	179	0.0	0.0	0.0
	180	0.0	0.0	0.0
	181	0.0	0.0	0.0
	182	0.0	0.0	0.0
	183	0.0	0.0	0.0
	184	0.0	0.0	0.0
	185	0.0	0.0	0.0
	186	0.0	0.0	0.0
	187	0.0	0.0	0.0
	188	0.0	0.0	0.0
	189	0.0	0.0	0.0
	190	0.0	0.0	0.0
	191	0.0	0.0	0.0
	192	0.0	0.0	0.0
	193	0.0	0.0	0.0
	194	0.0	0.0	0.0
	195	0.0	0.0	0.0
	196	0.0	0.0	0.0
	197	0.0	0.0	0.0
	198	0.0	0.0	0.0
	199	0.0	0.0	0.0
	200	0.0	0.0	0.0
	201	0.0	0.0	0.0
	202	0.0	0.0	0.0
	203	0.0	0.0	0.0
	204	0.0	0.0	0.0
	205	0.0	0.0	0.0
	206	0.0	0.0	0.0
	207	0.0	0.0	0.0
	208	0.0	0.0	0.0
	209	0.0	0.0	0.0
	210	0.0	0.0	0.0
	211	0.0	0.0	0.0
	212	0.0	0.0	0.0
	213	0.0	0.0	0.0
	214	0.0	0.0	0.0
	215	0.0	0.0	0.0
	216	0.0	0.0	0.0
	217	0.0	0.0	0.0
	218	0.0	0.0	0.0
	219	0.0	0.0	0.0
	220	0.0	0.0	0.0
	221	0.0	0.0	0.0
	222	0.0	0.0	0.0
	223	0.0	0.0	0.0
	224	0.0	0.0	0.0
	225	0.0	0.0	0.0
	226	0.0	0.0	0.0
	227	0.0	0.0	0.0
	228	0.0	0.0	0.0
	229	0.0	0.0	0.0
	230	0.0	0.0	0.0
	231	0.0	0.0	0.0
	232	0.0	0.0	0.0
	233	0.0	0.0	0.0
	234	0.0	0.0	0.0
	235	0.0	0.0	0.0
	236	0.0	0.0	0.0
	237	0.0	0.0	0.0
	238	0.0	0.0	0.0
	239	0.0	0.0	0.0
	240	0.0	0.0	0.0
	241	0.0	0.0	0.0
	242	0.0	0.0	0.0
	243	0.0	0.0	0.0
	244	0.0	0.0	0.0
	245	0.0	0.0	0.0
	246	0.0	0.0	0.0
	247	0.0	0.0	0.0
	248	0.0	0.0	0.0
	249	0.0	0.0	0.0
	250	0.0	0.0	0.0
	251	0.0	0.0	0.0
	252	0.0	0.0	0.0
	253	0.0	0.0	0.0
	254	0.0	0.0	0.0
	255	0.0	0.0	0.0
	256	0.0	0.0	0.0
	257	0.0	0.0	0.0
	258	0.0	0.0	0.0
	259	0.0	0.0	0.0
	260	0.0	0.0	0.0
	261	0.0	0.0	0.0
	262	0.0	0.0	0.0
	263	0.0	0.0	0.0
	264	0.0	0.0	0.0
	265	0.0	0.0	0.0
	266	0.0	0.0	0.0
	267	0.0	0.0	0.0
	268	0.0	0.0	0.0
	269	0.0	0.0	0.0
	270	0.0	0.0	0.0
	271	0.0	0.0	0.0
	272	0.0	0.0	0.0
	273	0.0	0.0	0.0
	274	0.0	0.0	0.0
	275	0.0	0.0	0.0
	276	0.0	0.0	0.0
	277	0.0	0.0	0.0
	278	0.0	0.0	0.0
	279	0.0	0.0	0.0
	280	0.0	0.0	0.0
	281	0.0	0.0	0.0
	282	0.0	0.0	0.0
	283	0.0	0.0	0.0
	284	0.0	0.0	0.0
	285	0.0	0.0	0.0
	286	0.0	0.0	0.0
	287	0.0	0.0	0.0
	288	0.0	0.0	0.0
	289	0.0	0.0	0.0
	290	0.0	0.0	0.0
	291	0.0	0.0	0.0
	292	0.0	0.0	0.0
	293	0.0	0.0	0.0
	294	0.0	0.0	0.0
	295	0.0	0.0	0.0
	296	0.0	0.0	0.0
	297	0.0	0.0	0.0
	298	0.0	0.0	0.0
	299	0.0	0.0	0.0
	300	0.0	0.0	0.0
	301	0.0	0.0	0.0
	302	0.0	0.0	0.0
	303	0.0	0.0	0.0
	304	0.0	0.0	0.0
	305	0.0	0.0	0.0
	306	0.0	0.0	0.0
	307	0.0	0.0	0.0
	308	0.0	0.0	0.0
	309	0.0	0.0	0.0
	310	0.0	0.0	0.0
	311	0.0	0.0	0.0
	312	0.0	0.0	0.0
	313	0.0	0.0	0.0
	314	0.0	0.0	0.0
	315	0.0	0.0	0.0
	316	0.0	0.0	0.0
	317	0.0	0.0	0.0
	318	0.0	0.0	0.0
	319	0.0	0.0	0.0
	320	0.0	0.0	0.0
	321	0.0	0.0	0.0
	322	0.0	0.0	0.0
	323	0.0	0.0	0.0
	324	0.0	0.0	0.0
	325	0.0	0.0	0.0
	326	0.0	0.0	0.0
	327	0.0	0.0	0.0
	328	0.0	0.0	0.0
	329	0.0	0.0	0.0
	330	0.0	0.0	0.0
	331	0.0	0.0	0.0
	332	0.0	0.0	0.0
	333	0.0	0.0	0.0
	334	0.0	0.0	0.0
	335	0.0	0.0	0.0
	336	0.0	0.0	0.0
	337	0.0	0.0	0.0
	338	0.0	0.0	0.0
	339	0.0	0.0	0.0
	340	0.0	0.0	0.0
	341	0.0	0.0	0.0
	342	0.0	0.0	0.0
	343	0.0	0.0	0.0
	344	0.0	0.0	0.0
	345	0.0	0.0	0.0
	346	0.0	0.0	0.0
	347	0.0	0.0	0.0
	348	0.0	0.0	0.0
	349	0.0	0.0	0.0
	350	0.0	0.0	0.0
	351	0.0	0.0	0.0
	352	0.0	0.0	0.0
	353	0.0	0.0	0.0
	354	0.0	0.0	0.0
	355	0.0	0.0	0.0
	356	0.0	0.0	0.0
	357	0.0	0.0	0.0
	358	0.0	0.0	0.0
	359	0.0	0.0	0.0
	360	0.0	0.0	0.0
	361	0.0	0.0	0.0
	362	0.0	0.0	0.0
	363	0.0	0.0	0.0
	364	0.0	0.0	0.0
	365	0.0	0.0	0.0
	366	0.0	0.0	0.0
	367	0.0	0.0	0.0
	368	0.0	0.0	0.0
	369	0.0	0.0	0.0
	370	0.0	0.0	0.0
	371	0.0	0.0	0.0
	372	0.0	0.0	0.0
	373	0.0	0.0	0.0
	374	0.0	0.0	0.0
	375	0.0	0.0	0.0
	376	0.0	0.0	0.0
	377	0.0	0.0	0.0
	378	0.0	0.0	0.0
	379	0.0	0.0	0.0
	380	0.0	0.0	0.0
	381	0.0	0.0	0.0
	382	0.0	0.0	0.0
	383	0.0	0.0	0.0
	384	0.0	0.0	0.0
	385	0.0	0.0	0.0
	386	0.0	0.0	0.0
	387	0.0	0.0	0.0
	388	0.0	0.0	0.0
	389	0.0	0.0	0.0
	390	0.0	0.0	0.0
	391	0.0	0.0	0.0
	392	0.0	0.0	0.0
	393	0.0	0.0	0.0
	394	0.0	0.0	0.0
	395	0.0	0.0	0.0
	396	0.0	0.0	0.0
	397	0.0	0.0	0.0
	398	0.0	0.0	0.0
	399	0.0	0.0	0.0
	400	0.0	0.0	0.0
	401	0.0	0.0	0.0
	402	0.0	0.0	0.0
	403	0.0	0.0	0.0
	404	0.0	0.0	0.0
	405	0.0	0.0	0.0
	406	0.0	0.0	0.0
	407	0.0	0.0	0.0
	408	0.0	0.0	0.0
	409	0.0	0.0	0.0
	410	0.0	0.0	0.0
	411	0.0	0.0	0.0
	412	0.0	0.0	0.0
	413	0.0	0.0	0.0
	414	0.0	0.0	0.0
	415	0.0	0.0	0.0
	416	0.0	0.0	0.0
	417	0.0	0.0	0.0
	418	0.0	0.0	0.0
	419	0.0	0.0	0.0
	420	0.0	0.0	0.0
	421	0.0	0.0	0.0
	422	0.0	0.0	0.0
	423	0.0	0.0	0.0
	424	0.0	0.0	0.0
	425	0.0	0.0	0.0
	426	0.0	0.0	0.0
	427	0.0	0.0	0.0
	428	0.0	0.0	0.0
	429	0.0	0.0	0.0
	430	0.0	0.0	0.0
	431	0.0	0.0	0.0
	432	0.0	0.0	0.0
	433	0.0	0.0	0.0
	434	0.0	0.0	0.0
	435	0.0	0.0	0.0
	436	0.0	0.0	0.0
	437	0.0	0.0	0.0
	438	0.0	0.0	0.0
	439	0.0	0.0	0.0
	440	0.0	0.0	0.0
	441	0.0	0.0	0.0
	442	0.0	0.0	0.0
	443	0.0	0.0	0.0
	444	0.0	0.0	0.0
	445	0.0	0.0	0.0
	446	0.0	0.0	0.0
	447	0.0	0.0	0.0
	448	0.0	0.0	0.0
	449	0.0	0.0	0.0
	450	0.0	0.0	0.0
	451	0.0	0.0	0.0
	452	0.0	0.0	0.0
	453	0.0	0.0	0.0
	454	0.0	0.0	0.0
	455	0.0	0.0	0.0
	456	0.0	0.0	0.0
	457	0.0	0.0	0.0
	458	0.0	0.0	0.0
	459	0.0	0.0	0.0
	460	0.0	0.0	0.0
	461	0.0	0.0	0.0
	462	0.0	0.0	0.0
	463	0.0	0.0	0.0
	464	0.0	0.0	0.0
	465	0.0	0.0	0.0
	466	0.0	0.0	0.0
	467	0.0	0.0	0.0
	468	0.0	0.0	0.0
	469	0.0	0.0	0.0
	470	0.0	0.0	0.0
	471	0.0	0.0	0.0
	472	0.0	0.0	0.0
	473	0.0	0.0	0.0
	474	0.0	0.0	0.0
	475	0.0	0.0	0.0
	476	0.0	0.0	0.0
	477	0.0	0.0	0.0
	478	0.0	0.0	0.0
	479	0.0	0.0	0.0
	480	0.0	0.0	0.0
	481	0.0	0.0	0.0
	482	0.0	0.0	0.0
	483	0.0	0.0	0.0
	484	0.0	0.0	0.0
	485	0.0	0.0	0.0
	486	0.0	0.0	0.0
	487	0.0	0.0	0.0
	488	0.0	0.0	0.0
	489	0.0	0.0	0.0
	490	0.0	0.0	0.0
	491	0.0	0.0	0.0
	492	0.0	0.0	0.0
	493	0.0	0.0	0.0
	494	0.0	0.0	0.0
	495	0.0	0.0	0.0
	496	0.0	0.0	0.0
	497	0.0	0.0	0.0
	498	0.0	0.0	0.0
	499	0.0	0.0	0.0
	500	0.0	0.0	0.0
	501	0.0	0.0	0.0
	502	0.0	0.0	0.0
	503	0.0	0.0	0.0
	504	0.0	0.0	0.0
	505	0.0	0.0	0.0
	506	0.0	0.0	0.0
	507	0.0	0.0	0.0
	508	0.0	0.0	0.0
	509	0.0	0.0	0.0
	510	0.0	0.0	0.0
	511	0.0	0.0	0.0
	512	0.0	0.0	0.0
	513	0.0	0.0	0.0
	514	0.0	0.0	0.0
	515	0.0	0.0	0.0
	516	0.0	0.0	0.0
	517	0.0	0.0	0.0
	518	0.0	0.0	0.0
	519	0.0	0.0	0.0
	520	0.0	0.0	0.0
	521	0.0	0.0	0.0
	522	0.0	0.0	0.0
	523	0.0	0.0	0.0
	524	0.0	0.0	0.0
	525	0.0	0.0	0.0
	526	0.0	0.0	0.0
	527	0.0	0.0	0.0
	528	0.0	0.0	0.0
	529	0.0	0.0	0.0
	530	0.0	0.0	0.0
	531	0.0	0.0	0.0
	532	0.0	0.0	0.0
	533	0.0	0.0	0.0
	534	0.0	0.0	0.0
	535	0.0	0.0	0.0
	536	0.0	0.0	0.0
	537	0.0	0.0	0.0
	538	0.0	0.0	0.0
	539	0.0	0.0	0.0
	540	0.0	0.0	0.0
	541	0.0	0.0	0.0
	542	0.0	0.0	0.0
	543	0.0	0.0	0.0
	544	0.0	0.0	0.0
	545	0.0	0.0	0.0
	546	0.0	0.0	0.0
	547	0.0	0.0	0.0
	548	0.0	0.0	0.0
	549	0.0	0.0	0.0
	550	0.0	0.0	0.0
	551	0.0	0.0	0.0
	552	0.0	0.0	0.0
	553	0.0	0.0	0.0
	554	0.0	0.0	0.0
	555	0.0	0.0	0.0
	556	0.0	0.0	0.0
	557	0.0	0.0	0.0
	558	0.0	0.0	0.0
	559	0.0	0.0	0.0
	560	0.0	0.0	0.0
	561	0.0	0.0	0.0
	562	0.0	0.0	0.0
	563	0.0	0.0	0.0
	564	0.0	0.0	0.0
	565	0.0	0.0	0.0
	566	0.0	0.0	0.0
	567	0.0	0.0	0.0
	568	0.0	0.0	0.0
	569	0.0	0.0	0.0
	570	0.0	0.0	0.0
	571	0.0	0.0	0.0
	572	0.0	0.0	0.0
	573	0.0	0.0	0.0
	574	0.0	0.0	0.0
	575	0.0	0.0	0.0
	576	0.0	0.0	0.0
	577	0.0	0.0	0.0
	578	0.0	0.0	0.0
	579	0.0	0.0	0.0
	580	0.0	0.0	0.0
	581	0.0	0.0	0.0
	582	0.0	0.0	0.0
	583	0.0	0.0	0.0
	584	0.0	0.0	0.0
	585	0.0	0.0	0.0
	586	0.0	0.0	0.0
	587	0.0	0.0	0.0
	588	0.0	0.0	0.0
	589	0.0	0.0	0.0
	590	0.0	0.0	0.0
	591	0.0	0.0	0.0
	592	0.0	0.0	0.0
	593	0.0	0.0	0.0
	594	0.0	0.0	0.0
	595	0.0	0.0	0.0
	596	0.0	0.0	0.0
	597	0.0	0.0	0.0
	598	0.0	0.0	0.0
	599	0.0	0.0	0.0
	600	0.0	0.0	0.0
	601	0.0	0.0	0.0
	602	0.0	0.0	0.0
	603	0.0	0.0	0.0
	604	0.0	0.0	0.0
	605	0.0	0.0	0.0
	606	0.0	0.0	0.0
	607	0.0	0.0	0.0
	608	0.0	0.0	0.0
	609	0.0	0.0	0.0