
units 		metal
dimension 	3
boundary 	p p p
atom_style 	atomic


#--------------Create Atom----------------------------

read_data	data.CuNi${SIMNUM} #append num for atoms or time
read_data	data.CuNi4 
  orthogonal box = (-0.02 -0.02 -0.02) to (13.82 13.82 13.82)
  1 by 1 by 1 MPI processor grid
  reading atoms ...
  172 atoms
  reading velocities ...
  172 velocities


#---------------Define Interatomic Potential----------

pair_style eam/alloy
pair_coeff * * CuNi.eam.alloy Ni Cu
Reading potential file CuNi.eam.alloy with DATE: 2014-07-11
neighbor .05 bin
neigh_modify delay 10 check yes

#---------------Define Settings--------------


#---------------Specify Volume------------------------

change_box all x scale ${SCALE} y scale ${SCALE} z scale ${SCALE}
change_box all x scale 1.02 y scale ${SCALE} z scale ${SCALE}
change_box all x scale 1.02 y scale 1.02 z scale ${SCALE}
change_box all x scale 1.02 y scale 1.02 z scale 1.02
  orthogonal box = (-0.1584 -0.02 -0.02) to (13.9584 13.82 13.82)
  orthogonal box = (-0.1584 -0.1584 -0.02) to (13.9584 13.9584 13.82)
  orthogonal box = (-0.1584 -0.1584 -0.1584) to (13.9584 13.9584 13.9584)

#---------------Run Minimization----------------------

reset_timestep 0
timestep 0.0001
thermo          100
thermo_style    custom step temp pe etotal press lx ly lz



min_style cg # use conjugate gradient method
minimize 1.0e-4 1.0e-6 100 100000
WARNING: Using 'neigh_modify every 1 delay 0 check yes' setting during minimization (src/min.cpp:168)
Neighbor list info ...
  update every 1 steps, delay 0 steps, check yes
  max neighbors/atom: 2000, page size: 100000
  master list distance cutoff = 6.44433
  ghost atom cutoff = 6.44433
  binsize = 3.22217, bins = 5 5 5
  1 neighbor lists, perpetual/occasional/extra = 1 0 0
  (1) pair eam/alloy, perpetual
      attributes: half, newton on
      pair build: half/bin/atomonly/newton
      stencil: half/bin/3d/newton
      bin: standard
Per MPI rank memory allocation (min/avg/max) = 4.092 | 4.092 | 4.092 Mbytes
Step Temp PotEng TotEng Press Lx Ly Lz 
       0            0    21237.562    21237.562      3704798      14.1168      14.1168      14.1168 
      97            0     -594.368     -594.368   -82779.332      14.1168      14.1168      14.1168 
Loop time of 0.0529606 on 1 procs for 97 steps with 172 atoms

100.0% CPU use with 1 MPI tasks x 1 OpenMP threads

Minimization stats:
  Stopping criterion = energy tolerance
  Energy initial, next-to-last, final = 
         21237.5622572     -594.312107821      -594.36799795
  Force two-norm initial, final = 11424.4 0.658947
  Force max component initial, final = 1713.56 0.154195
  Final line search alpha, max atom move = 0.41687 0.0642793
  Iterations, force evaluations = 97 118

MPI task timing breakdown:
Section |  min time  |  avg time  |  max time  |%varavg| %total
---------------------------------------------------------------
Pair    | 0.030572   | 0.030572   | 0.030572   |   0.0 | 57.73
Neigh   | 0.020128   | 0.020128   | 0.020128   |   0.0 | 38.01
Comm    | 0.0014646  | 0.0014646  | 0.0014646  |   0.0 |  2.77
Output  | 0          | 0          | 0          |   0.0 |  0.00
Modify  | 0          | 0          | 0          |   0.0 |  0.00
Other   |            | 0.0007962  |            |       |  1.50

Nlocal:    172 ave 172 max 172 min
Histogram: 1 0 0 0 0 0 0 0 0 0
Nghost:    958 ave 958 max 958 min
Histogram: 1 0 0 0 0 0 0 0 0 0
Neighs:    5920 ave 5920 max 5920 min
Histogram: 1 0 0 0 0 0 0 0 0 0

Total # of neighbors = 5920
Ave neighs/atom = 34.4186
Neighbor list builds = 107
Dangerous builds = 96


reset_timestep 0


#------ Make variables which I can use to check the pressure and temperature--------
compute         my_temp all temp
compute         mypress all pressure my_temp
variable        glpress equal "c_mypress"

fix             avepress all ave/time 1 100 100 c_mypress mode scalar ave one start 1000 #file ave.press
variable        presssq equal "v_glpress * v_glpress"
fix             avepresssq all ave/time 1 100 100 v_presssq mode scalar ave one start 1000 #file ave.presssq
variable        variance equal  "f_avepresssq - f_avepress*f_avepress"


#---------------SPECIFYING ENSEMBLE----------------------
fix 1 all nvt temp ${TEMP} ${TEMP} 1.0
fix 1 all nvt temp 1000 ${TEMP} 1.0
fix 1 all nvt temp 1000 1000 1.0


#----------------Run Simulation------------------------
# Do a short run to have data to average.
thermo          100
thermo_style    custom step temp pe etotal press lx ly lz v_variance

run 4000
Per MPI rank memory allocation (min/avg/max) = 2.967 | 2.967 | 2.967 Mbytes
Step Temp PotEng TotEng Press Lx Ly Lz v_variance 
       0            0     -594.368     -594.368   -82779.332      14.1168      14.1168      14.1168            0 
     100   0.14779148   -594.37126     -594.368   -82776.698      14.1168      14.1168      14.1168            0 
     200   0.52450217   -594.37959     -594.368   -82794.193      14.1168      14.1168      14.1168            0 
     300   0.97670484   -594.38958   -594.36799   -82843.789      14.1168      14.1168      14.1168            0 
     400    1.3715234   -594.39828   -594.36797   -82881.179      14.1168      14.1168      14.1168            0 
     500    1.6836274   -594.40515   -594.36794   -82912.604      14.1168      14.1168      14.1168            0 
     600    1.9847061   -594.41176   -594.36789   -82936.497      14.1168      14.1168      14.1168            0 
     700     2.352584   -594.41983   -594.36783   -83037.642      14.1168      14.1168      14.1168            0 
     800    2.8004343   -594.42965   -594.36775    -83068.63      14.1168      14.1168      14.1168            0 
     900    3.2777512   -594.44008   -594.36763   -83102.826      14.1168      14.1168      14.1168            0 
    1000     3.729317   -594.44992   -594.36749   -83166.419      14.1168      14.1168      14.1168    599.11349 
    1100    4.1426916   -594.45887    -594.3673   -83207.516      14.1168      14.1168      14.1168    110.20856 
    1200    4.5378393   -594.46738   -594.36708   -83358.576      14.1168      14.1168      14.1168    3089.8377 
    1300    4.9615575   -594.47649   -594.36682   -83438.406      14.1168      14.1168      14.1168    517.44298 
    1400    5.4413579   -594.48679   -594.36651   -83521.036      14.1168      14.1168      14.1168    610.64303 
    1500    5.9466681   -594.49759   -594.36615    -83552.59      14.1168      14.1168      14.1168    331.73821 
    1600    6.4369977   -594.50801   -594.36573   -83622.279      14.1168      14.1168      14.1168    522.03147 
    1700    6.9262679   -594.51835   -594.36526   -83631.868      14.1168      14.1168      14.1168    38.756885 
    1800     7.423264   -594.52879   -594.36471   -83756.923      14.1168      14.1168      14.1168    1228.7032 
    1900    7.9389859   -594.53958    -594.3641   -83737.493      14.1168      14.1168      14.1168     85.19913 
    2000    8.4594515   -594.55041   -594.36342   -83812.863      14.1168      14.1168      14.1168    521.45049 
    2100     8.955067   -594.56061   -594.36267   -83841.596      14.1168      14.1168      14.1168    174.05668 
    2200    9.4132567   -594.56992   -594.36185   -83846.788      14.1168      14.1168      14.1168    80.750048 
    2300    9.8707304   -594.57914   -594.36096   -83848.779      14.1168      14.1168      14.1168    100.80007 
    2400    10.372917   -594.58927      -594.36   -83909.216      14.1168      14.1168      14.1168    305.20527 
    2500    10.909055   -594.60008   -594.35896   -84008.303      14.1168      14.1168      14.1168    1005.7961 
    2600     11.43057    -594.6105   -594.35784   -84041.733      14.1168      14.1168      14.1168    236.08996 
    2700    11.898325   -594.61965   -594.35665   -84124.519      14.1168      14.1168      14.1168    580.21029 
    2800    12.293972   -594.62714    -594.3554   -84162.096      14.1168      14.1168      14.1168    277.95512 
    2900    12.657703   -594.63388    -594.3541   -84173.351      14.1168      14.1168      14.1168     190.2503 
    3000    13.099579   -594.64229   -594.35274   -84201.275      14.1168      14.1168      14.1168    408.03394 
    3100    13.647666   -594.65298   -594.35132   -84191.747      14.1168      14.1168      14.1168    362.44878 
    3200    14.335723    -594.6667   -594.34983   -84243.987      14.1168      14.1168      14.1168    362.58603 
    3300    15.086068   -594.68172   -594.34827   -84234.884      14.1168      14.1168      14.1168    340.21519 
    3400     15.89036   -594.69785   -594.34662   -84261.995      14.1168      14.1168      14.1168    122.32917 
    3500    16.755629   -594.71526    -594.3449   -84316.349      14.1168      14.1168      14.1168    243.10023 
    3600    17.687643   -594.73405   -594.34309   -84281.258      14.1168      14.1168      14.1168    772.34903 
    3700    18.707917   -594.75471    -594.3412   -84429.428      14.1168      14.1168      14.1168    2890.7651 
    3800    19.782265   -594.77648   -594.33922   -84470.392      14.1168      14.1168      14.1168    303.18609 
    3900    20.883314   -594.79874   -594.33715    -84448.22      14.1168      14.1168      14.1168    63.548033 
    4000    22.000789   -594.82129     -594.335   -84337.271      14.1168      14.1168      14.1168    1145.8131 
Loop time of 1.06254 on 1 procs for 4000 steps with 172 atoms

Performance: 32.526 ns/day, 0.738 hours/ns, 3764.556 timesteps/s
100.0% CPU use with 1 MPI tasks x 1 OpenMP threads

MPI task timing breakdown:
Section |  min time  |  avg time  |  max time  |%varavg| %total
---------------------------------------------------------------
Pair    | 1.0189     | 1.0189     | 1.0189     |   0.0 | 95.89
Neigh   | 0.0048625  | 0.0048625  | 0.0048625  |   0.0 |  0.46
Comm    | 0.012412   | 0.012412   | 0.012412   |   0.0 |  1.17
Output  | 0.00051389 | 0.00051389 | 0.00051389 |   0.0 |  0.05
Modify  | 0.022132   | 0.022132   | 0.022132   |   0.0 |  2.08
Other   |            | 0.003753   |            |       |  0.35

Nlocal:    172 ave 172 max 172 min
Histogram: 1 0 0 0 0 0 0 0 0 0
Nghost:    962 ave 962 max 962 min
Histogram: 1 0 0 0 0 0 0 0 0 0
Neighs:    5912 ave 5912 max 5912 min
Histogram: 1 0 0 0 0 0 0 0 0 0

Total # of neighbors = 5912
Ave neighs/atom = 34.3721
Neighbor list builds = 25
Dangerous builds = 0


# Begin lopping until the variance in the pressure is below a given value

variable        loopNum loop 1000

label           loop
if              "${variance} > 1000" then "run 2000" "next loopNum" "jump SELF loop" else "print 'continue'"
run 2000
Per MPI rank memory allocation (min/avg/max) = 2.967 | 2.967 | 2.967 Mbytes
Step Temp PotEng TotEng Press Lx Ly Lz v_variance 
    4000    22.000789   -594.82129     -594.335   -84337.271      14.1168      14.1168      14.1168    1145.8131 
    4100    23.106066   -594.84348   -594.33276   -84265.205      14.1168      14.1168      14.1168    195.50232 
    4200    24.214476   -594.86567   -594.33045   -84269.919      14.1168      14.1168      14.1168    176.84699 
    4300    25.362851   -594.88867   -594.32806   -84241.046      14.1168      14.1168      14.1168     360.6719 
    4400    26.591118   -594.91335   -594.32559   -84268.825      14.1168      14.1168      14.1168     79.10739 
    4500    27.870628   -594.93908   -594.32304   -84226.893      14.1168      14.1168      14.1168    495.16643 
    4600    29.181368   -594.96541    -594.3204   -84094.336      14.1168      14.1168      14.1168    1312.2124 
    4700    30.523997   -594.99236   -594.31767   -83922.468      14.1168      14.1168      14.1168    2326.7234 
    4800    31.884028   -595.01959   -594.31484   -83734.586      14.1168      14.1168      14.1168     3544.316 
    4900    33.216737   -595.04613   -594.31193   -83611.741      14.1168      14.1168      14.1168    2197.0171 
    5000    34.398561   -595.06925   -594.30892   -83458.073      14.1168      14.1168      14.1168    2464.5384 
    5100     35.41557   -595.08864   -594.30584   -83452.327      14.1168      14.1168      14.1168    223.68316 
    5200    36.247151   -595.10387   -594.30269   -83362.048      14.1168      14.1168      14.1168    1502.2015 
    5300    36.963244    -595.1165   -594.29948   -83472.687      14.1168      14.1168      14.1168    1633.9112 
    5400    37.697801   -595.12947   -594.29622   -83434.874      14.1168      14.1168      14.1168    419.27422 
    5500     38.54674   -595.14491    -594.2929   -83608.455      14.1168      14.1168      14.1168    2238.4834 
    5600    39.510971   -595.16282   -594.28949   -83622.085      14.1168      14.1168      14.1168    130.86449 
    5700    40.503981   -595.18127   -594.28599   -83714.515      14.1168      14.1168      14.1168    543.65056 
    5800    41.414842   -595.19781    -594.2824   -83769.924      14.1168      14.1168      14.1168     546.0163 
    5900    42.152319   -595.21043   -594.27871   -83859.441      14.1168      14.1168      14.1168    1704.0096 
    6000     42.85627   -595.22222   -594.27494   -83875.499      14.1168      14.1168      14.1168    460.43981 
Loop time of 0.536949 on 1 procs for 2000 steps with 172 atoms

Performance: 32.182 ns/day, 0.746 hours/ns, 3724.748 timesteps/s
100.0% CPU use with 1 MPI tasks x 1 OpenMP threads

MPI task timing breakdown:
Section |  min time  |  avg time  |  max time  |%varavg| %total
---------------------------------------------------------------
Pair    | 0.51041    | 0.51041    | 0.51041    |   0.0 | 95.06
Neigh   | 0.0060531  | 0.0060531  | 0.0060531  |   0.0 |  1.13
Comm    | 0.0061719  | 0.0061719  | 0.0061719  |   0.0 |  1.15
Output  | 0.00019153 | 0.00019153 | 0.00019153 |   0.0 |  0.04
Modify  | 0.012342   | 0.012342   | 0.012342   |   0.0 |  2.30
Other   |            | 0.001777   |            |       |  0.33

Nlocal:    172 ave 172 max 172 min
Histogram: 1 0 0 0 0 0 0 0 0 0
Nghost:    962 ave 962 max 962 min
Histogram: 1 0 0 0 0 0 0 0 0 0
Neighs:    5925 ave 5925 max 5925 min
Histogram: 1 0 0 0 0 0 0 0 0 0

Total # of neighbors = 5925
Ave neighs/atom = 34.4477
Neighbor list builds = 32
Dangerous builds = 0
next loopNum
jump SELF loop
if              "${variance} > 1000" then "run 2000" "next loopNum" "jump SELF loop" else "print 'continue'"
print 'continue'
continue



unfix		 avepress
unfix		 avepresssq
thermo 100
thermo_style custom step vol lx ly lz press
reset_timestep 0
shell echo ${loopNum} > loopNum${SIMNUM}.txt
shell echo 960 > loopNum${SIMNUM}.txt
shell echo 960 > loopNum4.txt
run 		${RUNNUMBER}
run 		500000
Per MPI rank memory allocation (min/avg/max) = 2.967 | 2.967 | 2.967 Mbytes
Step Volume Lx Ly Lz Press 
       0     2813.253      14.1168      14.1168      14.1168   -83875.499 
     100     2813.253      14.1168      14.1168      14.1168   -83996.841 
     200     2813.253      14.1168      14.1168      14.1168   -84052.587 
     300     2813.253      14.1168      14.1168      14.1168   -84139.617 
     400     2813.253      14.1168      14.1168      14.1168   -84282.199 
     500     2813.253      14.1168      14.1168      14.1168   -84269.466 
     600     2813.253      14.1168      14.1168      14.1168   -84229.273 
     700     2813.253      14.1168      14.1168      14.1168   -84405.471 
     800     2813.253      14.1168      14.1168      14.1168   -84360.492 
     900     2813.253      14.1168      14.1168      14.1168    -84506.94 
    1000     2813.253      14.1168      14.1168      14.1168   -84529.994 
    1100     2813.253      14.1168      14.1168      14.1168   -84458.705 
    1200     2813.253      14.1168      14.1168      14.1168   -84380.703 
    1300     2813.253      14.1168      14.1168      14.1168   -84324.827 
    1400     2813.253      14.1168      14.1168      14.1168   -84354.375 
    1500     2813.253      14.1168      14.1168      14.1168    -84261.13 
    1600     2813.253      14.1168      14.1168      14.1168   -84191.047 
    1700     2813.253      14.1168      14.1168      14.1168   -83929.384 
    1800     2813.253      14.1168      14.1168      14.1168   -83927.398 
    1900     2813.253      14.1168      14.1168      14.1168   -83951.426 
    2000     2813.253      14.1168      14.1168      14.1168   -83948.734 
    2100     2813.253      14.1168      14.1168      14.1168   -83988.003 
    2200     2813.253      14.1168      14.1168      14.1168   -83957.013 
    2300     2813.253      14.1168      14.1168      14.1168   -83969.765 
    2400     2813.253      14.1168      14.1168      14.1168    -83849.71 
    2500     2813.253      14.1168      14.1168      14.1168   -83671.078 
    2600     2813.253      14.1168      14.1168      14.1168   -83496.684 
    2700     2813.253      14.1168      14.1168      14.1168   -83382.164 
    2800     2813.253      14.1168      14.1168      14.1168   -83226.735 
    2900     2813.253      14.1168      14.1168      14.1168   -83040.116 
    3000     2813.253      14.1168      14.1168      14.1168   -82710.316 
    3100     2813.253      14.1168      14.1168      14.1168   -82447.339 
    3200     2813.253      14.1168      14.1168      14.1168   -82044.836 
    3300     2813.253      14.1168      14.1168      14.1168   -81677.957 
    3400     2813.253      14.1168      14.1168      14.1168   -81300.492 
    3500     2813.253      14.1168      14.1168      14.1168   -80973.167 
    3600     2813.253      14.1168      14.1168      14.1168   -80657.635 
    3700     2813.253      14.1168      14.1168      14.1168   -80387.606 
    3800     2813.253      14.1168      14.1168      14.1168   -80133.581 
    3900     2813.253      14.1168      14.1168      14.1168   -80084.702 
    4000     2813.253      14.1168      14.1168      14.1168     -80185.6 
    4100     2813.253      14.1168      14.1168      14.1168   -80066.652 
    4200     2813.253      14.1168      14.1168      14.1168   -80319.064 
    4300     2813.253      14.1168      14.1168      14.1168   -80690.636 
    4400     2813.253      14.1168      14.1168      14.1168   -81076.448 
    4500     2813.253      14.1168      14.1168      14.1168   -81402.907 
    4600     2813.253      14.1168      14.1168      14.1168   -81798.206 
    4700     2813.253      14.1168      14.1168      14.1168   -81950.866 
    4800     2813.253      14.1168      14.1168      14.1168   -82058.998 
    4900     2813.253      14.1168      14.1168      14.1168   -82317.073 
    5000     2813.253      14.1168      14.1168      14.1168   -82567.614 
    5100     2813.253      14.1168      14.1168      14.1168   -82679.055 
    5200     2813.253      14.1168      14.1168      14.1168   -82941.706 
    5300     2813.253      14.1168      14.1168      14.1168   -83084.462 
    5400     2813.253      14.1168      14.1168      14.1168   -83095.929 
    5500     2813.253      14.1168      14.1168      14.1168   -83123.399 
    5600     2813.253      14.1168      14.1168      14.1168   -83207.608 
    5700     2813.253      14.1168      14.1168      14.1168   -83214.096 
    5800     2813.253      14.1168      14.1168      14.1168   -83092.368 
    5900     2813.253      14.1168      14.1168      14.1168   -83119.518 
    6000     2813.253      14.1168      14.1168      14.1168   -82963.935 
    6100     2813.253      14.1168      14.1168      14.1168   -82678.523 
    6200     2813.253      14.1168      14.1168      14.1168   -82538.447 
    6300     2813.253      14.1168      14.1168      14.1168   -82319.735 
    6400     2813.253      14.1168      14.1168      14.1168   -82149.267 
    6500     2813.253      14.1168      14.1168      14.1168   -82019.219 
    6600     2813.253      14.1168      14.1168      14.1168   -81641.462 
    6700     2813.253      14.1168      14.1168      14.1168   -81378.947 
    6800     2813.253      14.1168      14.1168      14.1168   -81312.901 
    6900     2813.253      14.1168      14.1168      14.1168   -81088.549 
    7000     2813.253      14.1168      14.1168      14.1168   -80908.606 
    7100     2813.253      14.1168      14.1168      14.1168   -80822.416 
    7200     2813.253      14.1168      14.1168      14.1168   -80757.334 
    7300     2813.253      14.1168      14.1168      14.1168    -80587.87 
    7400     2813.253      14.1168      14.1168      14.1168   -80198.112 
    7500     2813.253      14.1168      14.1168      14.1168   -79860.518 
    7600     2813.253      14.1168      14.1168      14.1168   -78985.694 
    7700     2813.253      14.1168      14.1168      14.1168   -78365.034 
    7800     2813.253      14.1168      14.1168      14.1168   -77539.841 
    7900     2813.253      14.1168      14.1168      14.1168   -77020.478 
    8000     2813.253      14.1168      14.1168      14.1168   -76211.819 
    8100     2813.253      14.1168      14.1168      14.1168   -75543.007 
    8200     2813.253      14.1168      14.1168      14.1168   -74961.999 
    8300     2813.253      14.1168      14.1168      14.1168   -74753.173 
    8400     2813.253      14.1168      14.1168      14.1168   -74519.408 
    8500     2813.253      14.1168      14.1168      14.1168   -74746.649 
    8600     2813.253      14.1168      14.1168      14.1168    -74892.43 
    8700     2813.253      14.1168      14.1168      14.1168   -75213.314 
    8800     2813.253      14.1168      14.1168      14.1168   -75254.294 
    8900     2813.253      14.1168      14.1168      14.1168    -75550.55 
    9000     2813.253      14.1168      14.1168      14.1168   -75744.298 
    9100     2813.253      14.1168      14.1168      14.1168    -76284.61 
    9200     2813.253      14.1168      14.1168      14.1168   -76913.086 
    9300     2813.253      14.1168      14.1168      14.1168   -77638.668 
    9400     2813.253      14.1168      14.1168      14.1168   -78490.784 
    9500     2813.253      14.1168      14.1168      14.1168   -79281.606 
    9600     2813.253      14.1168      14.1168      14.1168    -80130.42 
    9700     2813.253      14.1168      14.1168      14.1168   -80937.879 
    9800     2813.253      14.1168      14.1168      14.1168   -81524.976 
    9900     2813.253      14.1168      14.1168      14.1168   -82240.713 
   10000     2813.253      14.1168      14.1168      14.1168   -82795.191 
   10100     2813.253      14.1168      14.1168      14.1168    -83201.67 
   10200     2813.253      14.1168      14.1168      14.1168   -83285.677 
   10300     2813.253      14.1168      14.1168      14.1168   -83245.685 
   10400     2813.253      14.1168      14.1168      14.1168   -83083.892 
   10500     2813.253      14.1168      14.1168      14.1168   -82968.552 
   10600     2813.253      14.1168      14.1168      14.1168   -82891.627 
   10700     2813.253      14.1168      14.1168      14.1168    -82778.71 
   10800     2813.253      14.1168      14.1168      14.1168   -82383.853 
   10900     2813.253      14.1168      14.1168      14.1168   -82054.897 
   11000     2813.253      14.1168      14.1168      14.1168    -81594.78 
   11100     2813.253      14.1168      14.1168      14.1168   -80942.499 
   11200     2813.253      14.1168      14.1168      14.1168   -80496.455 
   11300     2813.253      14.1168      14.1168      14.1168   -80150.369 
   11400     2813.253      14.1168      14.1168      14.1168   -79647.859 
   11500     2813.253      14.1168      14.1168      14.1168   -79265.923 
   11600     2813.253      14.1168      14.1168      14.1168   -78629.981 
   11700     2813.253      14.1168      14.1168      14.1168   -78091.671 
   11800     2813.253      14.1168      14.1168      14.1168    -77549.18 
   11900     2813.253      14.1168      14.1168      14.1168   -76946.082 
   12000     2813.253      14.1168      14.1168      14.1168   -76331.433 
   12100     2813.253      14.1168      14.1168      14.1168   -75626.824 
   12200     2813.253      14.1168      14.1168      14.1168   -75174.587 
   12300     2813.253      14.1168      14.1168      14.1168   -74734.541 
   12400     2813.253      14.1168      14.1168      14.1168   -74373.236 
   12500     2813.253      14.1168      14.1168      14.1168   -73628.468 
   12600     2813.253      14.1168      14.1168      14.1168   -72476.175 
   12700     2813.253      14.1168      14.1168      14.1168   -71858.978 
   12800     2813.253      14.1168      14.1168      14.1168    -71058.41 
   12900     2813.253      14.1168      14.1168      14.1168   -70576.516 
   13000     2813.253      14.1168      14.1168      14.1168   -70428.053 
   13100     2813.253      14.1168      14.1168      14.1168   -70318.579 
   13200     2813.253      14.1168      14.1168      14.1168   -70031.808 
   13300     2813.253      14.1168      14.1168      14.1168   -69844.559 
   13400     2813.253      14.1168      14.1168      14.1168   -69648.955 
   13500     2813.253      14.1168      14.1168      14.1168   -69810.749 
   13600     2813.253      14.1168      14.1168      14.1168   -70049.721 
   13700     2813.253      14.1168      14.1168      14.1168   -70405.692 
   13800     2813.253      14.1168      14.1168      14.1168    -70825.46 
   13900     2813.253      14.1168      14.1168      14.1168   -71337.875 
   14000     2813.253      14.1168      14.1168      14.1168   -71877.383 
   14100     2813.253      14.1168      14.1168      14.1168   -72313.345 
   14200     2813.253      14.1168      14.1168      14.1168   -72903.705 
   14300     2813.253      14.1168      14.1168      14.1168   -73578.406 
   14400     2813.253      14.1168      14.1168      14.1168   -74564.849 
   14500     2813.253      14.1168      14.1168      14.1168   -75555.506 
   14600     2813.253      14.1168      14.1168      14.1168   -76364.644 
   14700     2813.253      14.1168      14.1168      14.1168   -76947.055 
   14800     2813.253      14.1168      14.1168      14.1168   -77195.819 
   14900     2813.253      14.1168      14.1168      14.1168   -77471.036 
   15000     2813.253      14.1168      14.1168      14.1168   -77628.732 
   15100     2813.253      14.1168      14.1168      14.1168   -77873.616 
   15200     2813.253      14.1168      14.1168      14.1168   -77668.345 
   15300     2813.253      14.1168      14.1168      14.1168   -77500.389 
   15400     2813.253      14.1168      14.1168      14.1168   -77242.827 
   15500     2813.253      14.1168      14.1168      14.1168   -76988.014 
   15600     2813.253      14.1168      14.1168      14.1168   -76745.175 
   15700     2813.253      14.1168      14.1168      14.1168   -76510.502 
   15800     2813.253      14.1168      14.1168      14.1168   -76452.238 
   15900     2813.253      14.1168      14.1168      14.1168   -76354.241 
   16000     2813.253      14.1168      14.1168      14.1168   -76918.177 
   16100     2813.253      14.1168      14.1168      14.1168   -77243.794 
   16200     2813.253      14.1168      14.1168      14.1168   -77555.408 
   16300     2813.253      14.1168      14.1168      14.1168   -77862.564 
   16400     2813.253      14.1168      14.1168      14.1168   -78106.804 
   16500     2813.253      14.1168      14.1168      14.1168   -78032.097 
   16600     2813.253      14.1168      14.1168      14.1168   -77798.375 
   16700     2813.253      14.1168      14.1168      14.1168   -77779.293 
   16800     2813.253      14.1168      14.1168      14.1168   -77686.142 
   16900     2813.253      14.1168      14.1168      14.1168   -77636.608 
   17000     2813.253      14.1168      14.1168      14.1168   -77180.479 
   17100     2813.253      14.1168      14.1168      14.1168   -76753.597 
   17200     2813.253      14.1168      14.1168      14.1168   -76364.156 
   17300     2813.253      14.1168      14.1168      14.1168   -76089.239 
   17400     2813.253      14.1168      14.1168      14.1168   -76169.483 
   17500     2813.253      14.1168      14.1168      14.1168   -76179.152 
   17600     2813.253      14.1168      14.1168      14.1168   -76180.627 
   17700     2813.253      14.1168      14.1168      14.1168   -76196.396 
   17800     2813.253      14.1168      14.1168      14.1168    -76169.05 
   17900     2813.253      14.1168      14.1168      14.1168   -76264.842 
   18000     2813.253      14.1168      14.1168      14.1168   -76515.125 
   18100     2813.253      14.1168      14.1168      14.1168    -76942.65 
   18200     2813.253      14.1168      14.1168      14.1168    -77068.71 
   18300     2813.253      14.1168      14.1168      14.1168   -77032.355 
   18400     2813.253      14.1168      14.1168      14.1168   -76511.248 
   18500     2813.253      14.1168      14.1168      14.1168   -76014.554 
   18600     2813.253      14.1168      14.1168      14.1168    -75643.15 
   18700     2813.253      14.1168      14.1168      14.1168   -75072.141 
   18800     2813.253      14.1168      14.1168      14.1168   -74365.071 
   18900     2813.253      14.1168      14.1168      14.1168   -74063.172 
   19000     2813.253      14.1168      14.1168      14.1168    -73588.59 
   19100     2813.253      14.1168      14.1168      14.1168   -73247.285 
   19200     2813.253      14.1168      14.1168      14.1168   -73035.762 
   19300     2813.253      14.1168      14.1168      14.1168   -72915.362 
   19400     2813.253      14.1168      14.1168      14.1168   -72963.255 
   19500     2813.253      14.1168      14.1168      14.1168   -72754.089 
   19600     2813.253      14.1168      14.1168      14.1168   -72644.559 
   19700     2813.253      14.1168      14.1168      14.1168   -72020.206 
   19800     2813.253      14.1168      14.1168      14.1168   -71375.615 
   19900     2813.253      14.1168      14.1168      14.1168   -70843.953 
   20000     2813.253      14.1168      14.1168      14.1168   -70403.024 
   20100     2813.253      14.1168      14.1168      14.1168   -69994.288 
   20200     2813.253      14.1168      14.1168      14.1168   -69937.398 
   20300     2813.253      14.1168      14.1168      14.1168   -70046.282 
   20400     2813.253      14.1168      14.1168      14.1168   -69851.524 
   20500     2813.253      14.1168      14.1168      14.1168   -69675.496 
   20600     2813.253      14.1168      14.1168      14.1168    -69351.61 
   20700     2813.253      14.1168      14.1168      14.1168   -69031.081 
   20800     2813.253      14.1168      14.1168      14.1168   -69123.511 
   20900     2813.253      14.1168      14.1168      14.1168    -69560.26 
   21000     2813.253      14.1168      14.1168      14.1168   -70266.376 
   21100     2813.253      14.1168      14.1168      14.1168   -70789.473 
   21200     2813.253      14.1168      14.1168      14.1168   -70996.334 
   21300     2813.253      14.1168      14.1168      14.1168    -70620.36 
   21400     2813.253      14.1168      14.1168      14.1168   -70233.678 
   21500     2813.253      14.1168      14.1168      14.1168   -70068.317 
   21600     2813.253      14.1168      14.1168      14.1168   -69920.479 
   21700     2813.253      14.1168      14.1168      14.1168   -70113.559 
   21800     2813.253      14.1168      14.1168      14.1168   -69683.302 
   21900     2813.253      14.1168      14.1168      14.1168   -69289.741 
   22000     2813.253      14.1168      14.1168      14.1168   -68892.514 
   22100     2813.253      14.1168      14.1168      14.1168   -68493.893 
   22200     2813.253      14.1168      14.1168      14.1168   -68836.442 
   22300     2813.253      14.1168      14.1168      14.1168   -69087.317 
   22400     2813.253      14.1168      14.1168      14.1168   -69543.776 
   22500     2813.253      14.1168      14.1168      14.1168   -69561.145 
   22600     2813.253      14.1168      14.1168      14.1168   -69037.526 
   22700     2813.253      14.1168      14.1168      14.1168   -68301.396 
   22800     2813.253      14.1168      14.1168      14.1168   -67382.966 
   22900     2813.253      14.1168      14.1168      14.1168   -66413.979 
   23000     2813.253      14.1168      14.1168      14.1168   -65823.963 
   23100     2813.253      14.1168      14.1168      14.1168   -65026.797 
   23200     2813.253      14.1168      14.1168      14.1168   -64243.423 
   23300     2813.253      14.1168      14.1168      14.1168   -63078.283 
   23400     2813.253      14.1168      14.1168      14.1168   -62476.117 
   23500     2813.253      14.1168      14.1168      14.1168   -62079.389 
   23600     2813.253      14.1168      14.1168      14.1168   -62030.652 
   23700     2813.253      14.1168      14.1168      14.1168   -62060.448 
   23800     2813.253      14.1168      14.1168      14.1168   -62021.212 
   23900     2813.253      14.1168      14.1168      14.1168   -62064.231 
   24000     2813.253      14.1168      14.1168      14.1168   -62107.344 
   24100     2813.253      14.1168      14.1168      14.1168    -62412.32 
   24200     2813.253      14.1168      14.1168      14.1168   -62920.976 
   24300     2813.253      14.1168      14.1168      14.1168   -63611.477 
   24400     2813.253      14.1168      14.1168      14.1168   -64539.646 
   24500     2813.253      14.1168      14.1168      14.1168   -65748.595 
   24600     2813.253      14.1168      14.1168      14.1168    -66427.96 
   24700     2813.253      14.1168      14.1168      14.1168   -66942.776 
   24800     2813.253      14.1168      14.1168      14.1168   -66855.729 
   24900     2813.253      14.1168      14.1168      14.1168    -66741.78 
   25000     2813.253      14.1168      14.1168      14.1168   -66838.216 
   25100     2813.253      14.1168      14.1168      14.1168   -67063.796 
   25200     2813.253      14.1168      14.1168      14.1168   -67728.672 
   25300     2813.253      14.1168      14.1168      14.1168   -68716.775 
   25400     2813.253      14.1168      14.1168      14.1168   -69030.898 
   25500     2813.253      14.1168      14.1168      14.1168   -68737.958 
   25600     2813.253      14.1168      14.1168      14.1168   -68280.523 
   25700     2813.253      14.1168      14.1168      14.1168   -68176.258 
   25800     2813.253      14.1168      14.1168      14.1168   -67869.108 
   25900     2813.253      14.1168      14.1168      14.1168   -67895.443 
   26000     2813.253      14.1168      14.1168      14.1168   -68480.733 
   26100     2813.253      14.1168      14.1168      14.1168   -69202.057 
   26200     2813.253      14.1168      14.1168      14.1168   -69914.578 
   26300     2813.253      14.1168      14.1168      14.1168   -70446.888 
   26400     2813.253      14.1168      14.1168      14.1168   -71047.642 
   26500     2813.253      14.1168      14.1168      14.1168   -71445.635 
   26600     2813.253      14.1168      14.1168      14.1168   -71933.405 
   26700     2813.253      14.1168      14.1168      14.1168   -72341.988 
   26800     2813.253      14.1168      14.1168      14.1168   -72130.186 
   26900     2813.253      14.1168      14.1168      14.1168   -71812.714 
   27000     2813.253      14.1168      14.1168      14.1168   -71433.084 
   27100     2813.253      14.1168      14.1168      14.1168   -71451.367 
   27200     2813.253      14.1168      14.1168      14.1168   -71619.881 
   27300     2813.253      14.1168      14.1168      14.1168    -72224.02 
   27400     2813.253      14.1168      14.1168      14.1168   -73068.612 
   27500     2813.253      14.1168      14.1168      14.1168   -73810.852 
   27600     2813.253      14.1168      14.1168      14.1168   -74421.578 
   27700     2813.253      14.1168      14.1168      14.1168   -74876.687 
   27800     2813.253      14.1168      14.1168      14.1168    -74779.09 
   27900     2813.253      14.1168      14.1168      14.1168   -74066.669 
   28000     2813.253      14.1168      14.1168      14.1168   -73291.916 
   28100     2813.253      14.1168      14.1168      14.1168   -72709.925 
   28200     2813.253      14.1168      14.1168      14.1168   -72411.911 
   28300     2813.253      14.1168      14.1168      14.1168   -72641.452 
   28400     2813.253      14.1168      14.1168      14.1168   -72908.185 
   28500     2813.253      14.1168      14.1168      14.1168   -73292.089 
   28600     2813.253      14.1168      14.1168      14.1168   -73300.268 
   28700     2813.253      14.1168      14.1168      14.1168   -73076.547 
   28800     2813.253      14.1168      14.1168      14.1168   -72768.718 
   28900     2813.253      14.1168      14.1168      14.1168   -72681.188 
   29000     2813.253      14.1168      14.1168      14.1168   -72632.166 
   29100     2813.253      14.1168      14.1168      14.1168   -72755.247 
   29200     2813.253      14.1168      14.1168      14.1168   -73217.504 
   29300     2813.253      14.1168      14.1168      14.1168   -73244.762 
   29400     2813.253      14.1168      14.1168      14.1168   -73485.148 
   29500     2813.253      14.1168      14.1168      14.1168   -73117.016 
   29600     2813.253      14.1168      14.1168      14.1168   -72544.017 
   29700     2813.253      14.1168      14.1168      14.1168   -71802.045 
   29800     2813.253      14.1168      14.1168      14.1168   -71047.757 
   29900     2813.253      14.1168      14.1168      14.1168   -70194.231 
   30000     2813.253      14.1168      14.1168      14.1168   -69436.756 
   30100     2813.253      14.1168      14.1168      14.1168   -68609.884 
   30200     2813.253      14.1168      14.1168      14.1168   -68356.254 
   30300     2813.253      14.1168      14.1168      14.1168   -68794.816 
   30400     2813.253      14.1168      14.1168      14.1168     -69039.7 
   30500     2813.253      14.1168      14.1168      14.1168   -68970.632 
   30600     2813.253      14.1168      14.1168      14.1168   -68629.519 
   30700     2813.253      14.1168      14.1168      14.1168    -67706.66 
   30800     2813.253      14.1168      14.1168      14.1168   -66904.602 
   30900     2813.253      14.1168      14.1168      14.1168   -66307.438 
   31000     2813.253      14.1168      14.1168      14.1168   -66233.241 
   31100     2813.253      14.1168      14.1168      14.1168   -66814.328 
   31200     2813.253      14.1168      14.1168      14.1168   -67609.495 
   31300     2813.253      14.1168      14.1168      14.1168   -68512.014 
   31400     2813.253      14.1168      14.1168      14.1168   -69456.797 
   31500     2813.253      14.1168      14.1168      14.1168   -69532.951 
   31600     2813.253      14.1168      14.1168      14.1168   -69112.773 
   31700     2813.253      14.1168      14.1168      14.1168    -69107.04 
   31800     2813.253      14.1168      14.1168      14.1168   -69329.639 
   31900     2813.253      14.1168      14.1168      14.1168   -70099.554 
   32000     2813.253      14.1168      14.1168      14.1168   -71305.581 
   32100     2813.253      14.1168      14.1168      14.1168   -71786.883 
   32200     2813.253      14.1168      14.1168      14.1168   -72292.115 
   32300     2813.253      14.1168      14.1168      14.1168   -72568.516 
   32400     2813.253      14.1168      14.1168      14.1168   -72528.972 
   32500     2813.253      14.1168      14.1168      14.1168   -72647.506 
   32600     2813.253      14.1168      14.1168      14.1168   -72680.309 
   32700     2813.253      14.1168      14.1168      14.1168   -72665.273 
   32800     2813.253      14.1168      14.1168      14.1168   -72622.581 
   32900     2813.253      14.1168      14.1168      14.1168   -72527.941 
   33000     2813.253      14.1168      14.1168      14.1168   -71457.056 
   33100     2813.253      14.1168      14.1168      14.1168   -70520.632 
   33200     2813.253      14.1168      14.1168      14.1168   -69161.605 
   33300     2813.253      14.1168      14.1168      14.1168   -68514.549 
   33400     2813.253      14.1168      14.1168      14.1168   -68390.622 
   33500     2813.253      14.1168      14.1168      14.1168   -68107.417 
   33600     2813.253      14.1168      14.1168      14.1168   -67778.407 
   33700     2813.253      14.1168      14.1168      14.1168   -66553.563 
   33800     2813.253      14.1168      14.1168      14.1168   -65697.691 
   33900     2813.253      14.1168      14.1168      14.1168   -64559.225 
   34000     2813.253      14.1168      14.1168      14.1168    -63790.46 
   34100     2813.253      14.1168      14.1168      14.1168   -62941.906 
   34200     2813.253      14.1168      14.1168      14.1168   -63045.745 
   34300     2813.253      14.1168      14.1168      14.1168   -63902.284 
   34400     2813.253      14.1168      14.1168      14.1168   -65387.944 
   34500     2813.253      14.1168      14.1168      14.1168   -66340.778 
   34600     2813.253      14.1168      14.1168      14.1168   -67558.809 
   34700     2813.253      14.1168      14.1168      14.1168   -68299.855 
   34800     2813.253      14.1168      14.1168      14.1168   -68716.354 
   34900     2813.253      14.1168      14.1168      14.1168   -69248.637 
   35000     2813.253      14.1168      14.1168      14.1168   -69095.328 
   35100     2813.253      14.1168      14.1168      14.1168   -68692.356 
   35200     2813.253      14.1168      14.1168      14.1168   -68158.487 
   35300     2813.253      14.1168      14.1168      14.1168   -67812.811 
   35400     2813.253      14.1168      14.1168      14.1168   -67383.427 
   35500     2813.253      14.1168      14.1168      14.1168   -67062.163 
   35600     2813.253      14.1168      14.1168      14.1168   -65735.439 
   35700     2813.253      14.1168      14.1168      14.1168    -63904.36 
   35800     2813.253      14.1168      14.1168      14.1168   -61575.734 
   35900     2813.253      14.1168      14.1168      14.1168   -59538.838 
   36000     2813.253      14.1168      14.1168      14.1168   -58604.625 
   36100     2813.253      14.1168      14.1168      14.1168   -58717.588 
   36200     2813.253      14.1168      14.1168      14.1168   -59481.498 
   36300     2813.253      14.1168      14.1168      14.1168   -60188.928 
   36400     2813.253      14.1168      14.1168      14.1168   -60933.471 
   36500     2813.253      14.1168      14.1168      14.1168   -61378.566 
   36600     2813.253      14.1168      14.1168      14.1168   -61187.514 
   36700     2813.253      14.1168      14.1168      14.1168   -60497.802 
   36800     2813.253      14.1168      14.1168      14.1168   -60201.959 
   36900     2813.253      14.1168      14.1168      14.1168   -60112.948 
   37000     2813.253      14.1168      14.1168      14.1168   -60147.998 
   37100     2813.253      14.1168      14.1168      14.1168   -59845.677 
   37200     2813.253      14.1168      14.1168      14.1168    -60060.62 
   37300     2813.253      14.1168      14.1168      14.1168   -60734.578 
   37400     2813.253      14.1168      14.1168      14.1168   -62119.657 
   37500     2813.253      14.1168      14.1168      14.1168   -63915.834 
   37600     2813.253      14.1168      14.1168      14.1168   -65332.751 
   37700     2813.253      14.1168      14.1168      14.1168   -66270.004 
   37800     2813.253      14.1168      14.1168      14.1168    -66652.02 
   37900     2813.253      14.1168      14.1168      14.1168   -66227.864 
   38000     2813.253      14.1168      14.1168      14.1168   -65767.651 
   38100     2813.253      14.1168      14.1168      14.1168   -65034.285 
   38200     2813.253      14.1168      14.1168      14.1168   -64258.479 
   38300     2813.253      14.1168      14.1168      14.1168   -63890.112 
   38400     2813.253      14.1168      14.1168      14.1168   -63573.314 
   38500     2813.253      14.1168      14.1168      14.1168    -63814.72 
   38600     2813.253      14.1168      14.1168      14.1168   -64225.352 
   38700     2813.253      14.1168      14.1168      14.1168   -64605.434 
   38800     2813.253      14.1168      14.1168      14.1168   -65082.442 
   38900     2813.253      14.1168      14.1168      14.1168   -65441.539 
   39000     2813.253      14.1168      14.1168      14.1168   -65971.032 
   39100     2813.253      14.1168      14.1168      14.1168   -66031.043 
   39200     2813.253      14.1168      14.1168      14.1168   -66078.657 
   39300     2813.253      14.1168      14.1168      14.1168   -65462.936 
   39400     2813.253      14.1168      14.1168      14.1168   -64676.727 
   39500     2813.253      14.1168      14.1168      14.1168   -63885.913 
   39600     2813.253      14.1168      14.1168      14.1168   -63813.284 
   39700     2813.253      14.1168      14.1168      14.1168   -64765.898 
   39800     2813.253      14.1168      14.1168      14.1168   -65782.354 
   39900     2813.253      14.1168      14.1168      14.1168   -67135.031 
   40000     2813.253      14.1168      14.1168      14.1168   -67791.251 
   40100     2813.253      14.1168      14.1168      14.1168   -68463.329 
   40200     2813.253      14.1168      14.1168      14.1168   -68804.461 
   40300     2813.253      14.1168      14.1168      14.1168   -68472.281 
   40400     2813.253      14.1168      14.1168      14.1168   -68413.061 
   40500     2813.253      14.1168      14.1168      14.1168   -67996.662 
   40600     2813.253      14.1168      14.1168      14.1168     -67388.7 
   40700     2813.253      14.1168      14.1168      14.1168   -66498.534 
   40800     2813.253      14.1168      14.1168      14.1168   -65825.021 
   40900     2813.253      14.1168      14.1168      14.1168   -65206.333 
   41000     2813.253      14.1168      14.1168      14.1168   -64997.935 
   41100     2813.253      14.1168      14.1168      14.1168   -64673.593 
   41200     2813.253      14.1168      14.1168      14.1168   -65472.097 
   41300     2813.253      14.1168      14.1168      14.1168    -66561.16 
   41400     2813.253      14.1168      14.1168      14.1168   -67336.921 
   41500     2813.253      14.1168      14.1168      14.1168   -67303.298 
   41600     2813.253      14.1168      14.1168      14.1168   -66524.169 
   41700     2813.253      14.1168      14.1168      14.1168   -65325.886 
   41800     2813.253      14.1168      14.1168      14.1168   -64205.696 
   41900     2813.253      14.1168      14.1168      14.1168   -63679.287 
   42000     2813.253      14.1168      14.1168      14.1168   -63800.323 
   42100     2813.253      14.1168      14.1168      14.1168   -64543.923 
   42200     2813.253      14.1168      14.1168      14.1168   -64732.662 
   42300     2813.253      14.1168      14.1168      14.1168   -64318.402 
   42400     2813.253      14.1168      14.1168      14.1168   -63743.965 
   42500     2813.253      14.1168      14.1168      14.1168   -63306.671 
   42600     2813.253      14.1168      14.1168      14.1168   -63510.227 
   42700     2813.253      14.1168      14.1168      14.1168   -64183.959 
   42800     2813.253      14.1168      14.1168      14.1168   -64845.683 
   42900     2813.253      14.1168      14.1168      14.1168   -65132.619 
   43000     2813.253      14.1168      14.1168      14.1168   -65025.325 
   43100     2813.253      14.1168      14.1168      14.1168   -64885.361 
   43200     2813.253      14.1168      14.1168      14.1168   -64869.582 
   43300     2813.253      14.1168      14.1168      14.1168   -65033.873 
   43400     2813.253      14.1168      14.1168      14.1168   -65673.875 
   43500     2813.253      14.1168      14.1168      14.1168   -66260.823 
   43600     2813.253      14.1168      14.1168      14.1168   -65585.978 
   43700     2813.253      14.1168      14.1168      14.1168    -64212.61 
   43800     2813.253      14.1168      14.1168      14.1168   -62320.228 
   43900     2813.253      14.1168      14.1168      14.1168   -60976.201 
   44000     2813.253      14.1168      14.1168      14.1168   -60459.555 
   44100     2813.253      14.1168      14.1168      14.1168   -60941.082 
   44200     2813.253      14.1168      14.1168      14.1168   -61460.203 
   44300     2813.253      14.1168      14.1168      14.1168   -61379.089 
   44400     2813.253      14.1168      14.1168      14.1168    -60120.59 
   44500     2813.253      14.1168      14.1168      14.1168   -58259.419 
   44600     2813.253      14.1168      14.1168      14.1168   -57402.373 
   44700     2813.253      14.1168      14.1168      14.1168    -57998.27 
   44800     2813.253      14.1168      14.1168      14.1168   -58931.208 
   44900     2813.253      14.1168      14.1168      14.1168   -59445.606 
   45000     2813.253      14.1168      14.1168      14.1168   -58946.736 
   45100     2813.253      14.1168      14.1168      14.1168   -58207.667 
   45200     2813.253      14.1168      14.1168      14.1168   -58111.264 
   45300     2813.253      14.1168      14.1168      14.1168   -58163.338 
   45400     2813.253      14.1168      14.1168      14.1168    -58151.88 
   45500     2813.253      14.1168      14.1168      14.1168   -58481.281 
   45600     2813.253      14.1168      14.1168      14.1168    -59525.28 
   45700     2813.253      14.1168      14.1168      14.1168   -61558.067 
   45800     2813.253      14.1168      14.1168      14.1168   -63513.411 
   45900     2813.253      14.1168      14.1168      14.1168   -64748.898 
   46000     2813.253      14.1168      14.1168      14.1168   -65378.646 
   46100     2813.253      14.1168      14.1168      14.1168    -65358.95 
   46200     2813.253      14.1168      14.1168      14.1168   -64814.575 
   46300     2813.253      14.1168      14.1168      14.1168   -63988.264 
   46400     2813.253      14.1168      14.1168      14.1168   -63037.275 
   46500     2813.253      14.1168      14.1168      14.1168   -62320.685 
   46600     2813.253      14.1168      14.1168      14.1168   -62596.993 
   46700     2813.253      14.1168      14.1168      14.1168   -63603.192 
   46800     2813.253      14.1168      14.1168      14.1168   -65252.279 
   46900     2813.253      14.1168      14.1168      14.1168   -66346.231 
   47000     2813.253      14.1168      14.1168      14.1168    -67037.35 
   47100     2813.253      14.1168      14.1168      14.1168   -66398.584 
   47200     2813.253      14.1168      14.1168      14.1168   -65501.091 
   47300     2813.253      14.1168      14.1168      14.1168   -65504.078 
   47400     2813.253      14.1168      14.1168      14.1168   -66526.003 
   47500     2813.253      14.1168      14.1168      14.1168   -67858.791 
   47600     2813.253      14.1168      14.1168      14.1168   -69279.694 
   47700     2813.253      14.1168      14.1168      14.1168   -69463.519 
   47800     2813.253      14.1168      14.1168      14.1168   -68799.099 
   47900     2813.253      14.1168      14.1168      14.1168   -68192.205 
   48000     2813.253      14.1168      14.1168      14.1168   -68531.359 
   48100     2813.253      14.1168      14.1168      14.1168   -69772.283 
   48200     2813.253      14.1168      14.1168      14.1168   -69965.282 
   48300     2813.253      14.1168      14.1168      14.1168   -70270.254 
   48400     2813.253      14.1168      14.1168      14.1168   -69797.353 
   48500     2813.253      14.1168      14.1168      14.1168   -69301.096 
   48600     2813.253      14.1168      14.1168      14.1168   -69453.161 
   48700     2813.253      14.1168      14.1168      14.1168   -69571.079 
   48800     2813.253      14.1168      14.1168      14.1168   -68870.464 
   48900     2813.253      14.1168      14.1168      14.1168    -67591.63 
   49000     2813.253      14.1168      14.1168      14.1168   -66305.151 
   49100     2813.253      14.1168      14.1168      14.1168   -65305.363 
   49200     2813.253      14.1168      14.1168      14.1168   -64401.278 
   49300     2813.253      14.1168      14.1168      14.1168   -63121.497 
   49400     2813.253      14.1168      14.1168      14.1168   -61479.343 
   49500     2813.253      14.1168      14.1168      14.1168   -60562.806 
   49600     2813.253      14.1168      14.1168      14.1168    -60559.79 
   49700     2813.253      14.1168      14.1168      14.1168   -61077.585 
   49800     2813.253      14.1168      14.1168      14.1168   -61560.954 
   49900     2813.253      14.1168      14.1168      14.1168    -61863.16 
   50000     2813.253      14.1168      14.1168      14.1168    -62072.54 
   50100     2813.253      14.1168      14.1168      14.1168   -62499.106 
   50200     2813.253      14.1168      14.1168      14.1168   -62744.337 
   50300     2813.253      14.1168      14.1168      14.1168    -62112.88 
   50400     2813.253      14.1168      14.1168      14.1168   -61403.274 
   50500     2813.253      14.1168      14.1168      14.1168   -61207.567 
   50600     2813.253      14.1168      14.1168      14.1168   -61177.067 
   50700     2813.253      14.1168      14.1168      14.1168   -60611.239 
   50800     2813.253      14.1168      14.1168      14.1168   -59454.871 
   50900     2813.253      14.1168      14.1168      14.1168   -58579.256 
   51000     2813.253      14.1168      14.1168      14.1168   -57905.371 
   51100     2813.253      14.1168      14.1168      14.1168   -57776.043 
   51200     2813.253      14.1168      14.1168      14.1168   -58717.344 
   51300     2813.253      14.1168      14.1168      14.1168   -60638.024 
   51400     2813.253      14.1168      14.1168      14.1168    -62524.84 
   51500     2813.253      14.1168      14.1168      14.1168   -63404.503 
   51600     2813.253      14.1168      14.1168      14.1168   -64082.065 
   51700     2813.253      14.1168      14.1168      14.1168    -65123.46 
   51800     2813.253      14.1168      14.1168      14.1168   -66287.132 
   51900     2813.253      14.1168      14.1168      14.1168   -67651.409 
   52000     2813.253      14.1168      14.1168      14.1168   -68556.645 
   52100     2813.253      14.1168      14.1168      14.1168   -69263.542 
   52200     2813.253      14.1168      14.1168      14.1168   -69217.154 
   52300     2813.253      14.1168      14.1168      14.1168   -68717.271 
   52400     2813.253      14.1168      14.1168      14.1168   -68942.023 
   52500     2813.253      14.1168      14.1168      14.1168   -69943.879 
   52600     2813.253      14.1168      14.1168      14.1168   -70601.096 
   52700     2813.253      14.1168      14.1168      14.1168   -70313.633 
   52800     2813.253      14.1168      14.1168      14.1168   -68637.674 
   52900     2813.253      14.1168      14.1168      14.1168   -67244.389 
   53000     2813.253      14.1168      14.1168      14.1168   -66980.507 
   53100     2813.253      14.1168      14.1168      14.1168   -66837.357 
   53200     2813.253      14.1168      14.1168      14.1168   -66338.643 
   53300     2813.253      14.1168      14.1168      14.1168   -64504.754 
   53400     2813.253      14.1168      14.1168      14.1168    -62375.29 
   53500     2813.253      14.1168      14.1168      14.1168   -60222.044 
   53600     2813.253      14.1168      14.1168      14.1168   -58974.066 
   53700     2813.253      14.1168      14.1168      14.1168   -58952.455 
   53800     2813.253      14.1168      14.1168      14.1168   -59177.868 
   53900     2813.253      14.1168      14.1168      14.1168   -58782.254 
   54000     2813.253      14.1168      14.1168      14.1168   -57785.156 
   54100     2813.253      14.1168      14.1168      14.1168   -56598.552 
   54200     2813.253      14.1168      14.1168      14.1168   -56301.639 
   54300     2813.253      14.1168      14.1168      14.1168   -56890.067 
   54400     2813.253      14.1168      14.1168      14.1168   -57806.535 
   54500     2813.253      14.1168      14.1168      14.1168   -58418.576 
   54600     2813.253      14.1168      14.1168      14.1168    -58602.16 
   54700     2813.253      14.1168      14.1168      14.1168   -58271.913 
   54800     2813.253      14.1168      14.1168      14.1168   -57422.475 
   54900     2813.253      14.1168      14.1168      14.1168   -56696.001 
   55000     2813.253      14.1168      14.1168      14.1168   -56415.479 
   55100     2813.253      14.1168      14.1168      14.1168   -56528.059 
   55200     2813.253      14.1168      14.1168      14.1168    -57639.01 
   55300     2813.253      14.1168      14.1168      14.1168   -59508.149 
   55400     2813.253      14.1168      14.1168      14.1168   -60375.006 
   55500     2813.253      14.1168      14.1168      14.1168   -60380.301 
   55600     2813.253      14.1168      14.1168      14.1168   -59994.735 
   55700     2813.253      14.1168      14.1168      14.1168   -60731.706 
   55800     2813.253      14.1168      14.1168      14.1168   -62573.237 
   55900     2813.253      14.1168      14.1168      14.1168   -64445.498 
   56000     2813.253      14.1168      14.1168      14.1168   -66567.527 
   56100     2813.253      14.1168      14.1168      14.1168   -68712.518 
   56200     2813.253      14.1168      14.1168      14.1168   -70559.392 
   56300     2813.253      14.1168      14.1168      14.1168   -71481.006 
   56400     2813.253      14.1168      14.1168      14.1168   -71785.342 
   56500     2813.253      14.1168      14.1168      14.1168    -71625.33 
   56600     2813.253      14.1168      14.1168      14.1168   -71893.674 
   56700     2813.253      14.1168      14.1168      14.1168   -72613.467 
   56800     2813.253      14.1168      14.1168      14.1168   -73781.454 
   56900     2813.253      14.1168      14.1168      14.1168    -75070.78 
   57000     2813.253      14.1168      14.1168      14.1168   -74833.544 
   57100     2813.253      14.1168      14.1168      14.1168   -74145.353 
   57200     2813.253      14.1168      14.1168      14.1168   -74009.657 
   57300     2813.253      14.1168      14.1168      14.1168   -74771.478 
   57400     2813.253      14.1168      14.1168      14.1168   -75504.048 
   57500     2813.253      14.1168      14.1168      14.1168    -76220.06 
   57600     2813.253      14.1168      14.1168      14.1168   -76199.689 
   57700     2813.253      14.1168      14.1168      14.1168   -75216.894 
   57800     2813.253      14.1168      14.1168      14.1168   -73873.718 
   57900     2813.253      14.1168      14.1168      14.1168   -71894.475 
   58000     2813.253      14.1168      14.1168      14.1168   -70519.729 
   58100     2813.253      14.1168      14.1168      14.1168   -69583.737 
   58200     2813.253      14.1168      14.1168      14.1168   -69115.047 
   58300     2813.253      14.1168      14.1168      14.1168   -68503.628 
   58400     2813.253      14.1168      14.1168      14.1168   -67446.337 
   58500     2813.253      14.1168      14.1168      14.1168   -65874.045 
   58600     2813.253      14.1168      14.1168      14.1168   -64076.366 
   58700     2813.253      14.1168      14.1168      14.1168   -62038.967 
   58800     2813.253      14.1168      14.1168      14.1168   -59770.753 
   58900     2813.253      14.1168      14.1168      14.1168    -57614.62 
   59000     2813.253      14.1168      14.1168      14.1168   -55991.171 
   59100     2813.253      14.1168      14.1168      14.1168   -55056.311 
   59200     2813.253      14.1168      14.1168      14.1168   -54631.707 
   59300     2813.253      14.1168      14.1168      14.1168   -54861.762 
   59400     2813.253      14.1168      14.1168      14.1168   -55216.669 
   59500     2813.253      14.1168      14.1168      14.1168    -55348.59 
   59600     2813.253      14.1168      14.1168      14.1168   -54578.549 
   59700     2813.253      14.1168      14.1168      14.1168   -53427.515 
   59800     2813.253      14.1168      14.1168      14.1168   -52716.385 
   59900     2813.253      14.1168      14.1168      14.1168   -52821.187 
   60000     2813.253      14.1168      14.1168      14.1168   -53418.746 
   60100     2813.253      14.1168      14.1168      14.1168   -54204.794 
   60200     2813.253      14.1168      14.1168      14.1168   -55556.966 
   60300     2813.253      14.1168      14.1168      14.1168   -57822.563 
   60400     2813.253      14.1168      14.1168      14.1168   -60169.638 
   60500     2813.253      14.1168      14.1168      14.1168   -61889.919 
   60600     2813.253      14.1168      14.1168      14.1168   -62461.338 
   60700     2813.253      14.1168      14.1168      14.1168   -62770.555 
   60800     2813.253      14.1168      14.1168      14.1168   -62944.722 
   60900     2813.253      14.1168      14.1168      14.1168   -63590.863 
   61000     2813.253      14.1168      14.1168      14.1168   -63982.041 
   61100     2813.253      14.1168      14.1168      14.1168   -64061.054 
   61200     2813.253      14.1168      14.1168      14.1168   -63546.977 
   61300     2813.253      14.1168      14.1168      14.1168   -63420.155 
   61400     2813.253      14.1168      14.1168      14.1168   -63003.936 
   61500     2813.253      14.1168      14.1168      14.1168   -63039.295 
   61600     2813.253      14.1168      14.1168      14.1168   -63007.208 
   61700     2813.253      14.1168      14.1168      14.1168   -62670.643 
   61800     2813.253      14.1168      14.1168      14.1168   -61730.589 
   61900     2813.253      14.1168      14.1168      14.1168   -60200.479 
   62000     2813.253      14.1168      14.1168      14.1168    -58123.68 
   62100     2813.253      14.1168      14.1168      14.1168   -56062.732 
   62200     2813.253      14.1168      14.1168      14.1168   -55742.944 
   62300     2813.253      14.1168      14.1168      14.1168   -56061.991 
   62400     2813.253      14.1168      14.1168      14.1168    -56206.26 
   62500     2813.253      14.1168      14.1168      14.1168   -55262.048 
   62600     2813.253      14.1168      14.1168      14.1168   -54603.814 
   62700     2813.253      14.1168      14.1168      14.1168   -53606.557 
   62800     2813.253      14.1168      14.1168      14.1168   -52969.932 
   62900     2813.253      14.1168      14.1168      14.1168   -52065.858 
   63000     2813.253      14.1168      14.1168      14.1168   -50827.101 
   63100     2813.253      14.1168      14.1168      14.1168   -50267.456 
   63200     2813.253      14.1168      14.1168      14.1168   -50228.562 
   63300     2813.253      14.1168      14.1168      14.1168   -50235.225 
   63400     2813.253      14.1168      14.1168      14.1168   -50016.698 
   63500     2813.253      14.1168      14.1168      14.1168   -49425.822 
   63600     2813.253      14.1168      14.1168      14.1168   -49417.761 
   63700     2813.253      14.1168      14.1168      14.1168   -48655.141 
   63800     2813.253      14.1168      14.1168      14.1168   -47888.132 
   63900     2813.253      14.1168      14.1168      14.1168   -47562.257 
   64000     2813.253      14.1168      14.1168      14.1168    -48990.35 
   64100     2813.253      14.1168      14.1168      14.1168   -50541.877 
   64200     2813.253      14.1168      14.1168      14.1168   -52835.807 
   64300     2813.253      14.1168      14.1168      14.1168   -54815.084 
   64400     2813.253      14.1168      14.1168      14.1168   -56518.069 
   64500     2813.253      14.1168      14.1168      14.1168   -57549.501 
   64600     2813.253      14.1168      14.1168      14.1168   -58549.339 
   64700     2813.253      14.1168      14.1168      14.1168   -60258.318 
   64800     2813.253      14.1168      14.1168      14.1168   -62310.004 
   64900     2813.253      14.1168      14.1168      14.1168   -64941.807 
   65000     2813.253      14.1168      14.1168      14.1168    -68044.03 
   65100     2813.253      14.1168      14.1168      14.1168   -70313.603 
   65200     2813.253      14.1168      14.1168      14.1168   -72106.556 
   65300     2813.253      14.1168      14.1168      14.1168   -72960.182 
   65400     2813.253      14.1168      14.1168      14.1168   -74577.917 
   65500     2813.253      14.1168      14.1168      14.1168   -76520.864 
   65600     2813.253      14.1168      14.1168      14.1168   -78336.246 
   65700     2813.253      14.1168      14.1168      14.1168   -79774.475 
   65800     2813.253      14.1168      14.1168      14.1168   -78962.192 
   65900     2813.253      14.1168      14.1168      14.1168   -76450.525 
   66000     2813.253      14.1168      14.1168      14.1168   -73191.035 
   66100     2813.253      14.1168      14.1168      14.1168   -70997.776 
   66200     2813.253      14.1168      14.1168      14.1168   -70471.525 
   66300     2813.253      14.1168      14.1168      14.1168   -71719.255 
   66400     2813.253      14.1168      14.1168      14.1168   -73421.991 
   66500     2813.253      14.1168      14.1168      14.1168       -74051 
   66600     2813.253      14.1168      14.1168      14.1168   -73549.169 
   66700     2813.253      14.1168      14.1168      14.1168   -72416.122 
   66800     2813.253      14.1168      14.1168      14.1168   -71473.465 
   66900     2813.253      14.1168      14.1168      14.1168   -71289.867 
   67000     2813.253      14.1168      14.1168      14.1168   -70498.647 
   67100     2813.253      14.1168      14.1168      14.1168    -69355.11 
   67200     2813.253      14.1168      14.1168      14.1168   -68375.931 
   67300     2813.253      14.1168      14.1168      14.1168   -68209.084 
   67400     2813.253      14.1168      14.1168      14.1168   -68543.572 
   67500     2813.253      14.1168      14.1168      14.1168   -68883.212 
   67600     2813.253      14.1168      14.1168      14.1168   -69209.655 
   67700     2813.253      14.1168      14.1168      14.1168   -69862.595 
   67800     2813.253      14.1168      14.1168      14.1168   -70186.293 
   67900     2813.253      14.1168      14.1168      14.1168   -70019.137 
   68000     2813.253      14.1168      14.1168      14.1168     -68663.3 
   68100     2813.253      14.1168      14.1168      14.1168   -66002.331 
   68200     2813.253      14.1168      14.1168      14.1168   -63156.383 
   68300     2813.253      14.1168      14.1168      14.1168   -60365.156 
   68400     2813.253      14.1168      14.1168      14.1168   -59034.172 
   68500     2813.253      14.1168      14.1168      14.1168   -59188.176 
   68600     2813.253      14.1168      14.1168      14.1168    -60224.49 
   68700     2813.253      14.1168      14.1168      14.1168   -60972.771 
   68800     2813.253      14.1168      14.1168      14.1168   -60829.109 
   68900     2813.253      14.1168      14.1168      14.1168    -60346.73 
   69000     2813.253      14.1168      14.1168      14.1168   -59236.516 
   69100     2813.253      14.1168      14.1168      14.1168   -58634.241 
   69200     2813.253      14.1168      14.1168      14.1168    -58806.57 
   69300     2813.253      14.1168      14.1168      14.1168   -59088.546 
   69400     2813.253      14.1168      14.1168      14.1168   -58912.994 
   69500     2813.253      14.1168      14.1168      14.1168   -57521.804 
   69600     2813.253      14.1168      14.1168      14.1168   -55673.522 
   69700     2813.253      14.1168      14.1168      14.1168   -55383.367 
   69800     2813.253      14.1168      14.1168      14.1168   -56958.248 
   69900     2813.253      14.1168      14.1168      14.1168   -59951.228 
   70000     2813.253      14.1168      14.1168      14.1168   -61891.284 
   70100     2813.253      14.1168      14.1168      14.1168   -62004.031 
   70200     2813.253      14.1168      14.1168      14.1168   -61068.026 
   70300     2813.253      14.1168      14.1168      14.1168   -60019.002 
   70400     2813.253      14.1168      14.1168      14.1168   -59490.819 
   70500     2813.253      14.1168      14.1168      14.1168   -59465.524 
   70600     2813.253      14.1168      14.1168      14.1168   -60585.807 
   70700     2813.253      14.1168      14.1168      14.1168   -62751.829 
   70800     2813.253      14.1168      14.1168      14.1168   -64616.001 
   70900     2813.253      14.1168      14.1168      14.1168   -64652.071 
   71000     2813.253      14.1168      14.1168      14.1168   -64565.967 
   71100     2813.253      14.1168      14.1168      14.1168   -65278.871 
   71200     2813.253      14.1168      14.1168      14.1168   -67089.084 
   71300     2813.253      14.1168      14.1168      14.1168   -68963.217 
   71400     2813.253      14.1168      14.1168      14.1168   -70280.546 
   71500     2813.253      14.1168      14.1168      14.1168   -70873.962 
   71600     2813.253      14.1168      14.1168      14.1168    -70676.95 
   71700     2813.253      14.1168      14.1168      14.1168   -70226.831 
   71800     2813.253      14.1168      14.1168      14.1168     -70741.2 
   71900     2813.253      14.1168      14.1168      14.1168   -71907.367 
   72000     2813.253      14.1168      14.1168      14.1168   -73181.407 
   72100     2813.253      14.1168      14.1168      14.1168   -74027.934 
   72200     2813.253      14.1168      14.1168      14.1168   -74454.863 
   72300     2813.253      14.1168      14.1168      14.1168   -74353.753 
   72400     2813.253      14.1168      14.1168      14.1168   -73779.014 
   72500     2813.253      14.1168      14.1168      14.1168   -72491.095 
   72600     2813.253      14.1168      14.1168      14.1168   -72084.069 
   72700     2813.253      14.1168      14.1168      14.1168   -72081.904 
   72800     2813.253      14.1168      14.1168      14.1168   -72625.003 
   72900     2813.253      14.1168      14.1168      14.1168   -73262.164 
   73000     2813.253      14.1168      14.1168      14.1168    -72922.29 
   73100     2813.253      14.1168      14.1168      14.1168   -71787.362 
   73200     2813.253      14.1168      14.1168      14.1168   -70407.898 
   73300     2813.253      14.1168      14.1168      14.1168   -69393.016 
   73400     2813.253      14.1168      14.1168      14.1168   -69447.118 
   73500     2813.253      14.1168      14.1168      14.1168   -70697.449 
   73600     2813.253      14.1168      14.1168      14.1168    -72247.13 
   73700     2813.253      14.1168      14.1168      14.1168   -73131.765 
   73800     2813.253      14.1168      14.1168      14.1168   -72904.673 
   73900     2813.253      14.1168      14.1168      14.1168   -72720.923 
   74000     2813.253      14.1168      14.1168      14.1168   -73079.392 
   74100     2813.253      14.1168      14.1168      14.1168    -73576.14 
   74200     2813.253      14.1168      14.1168      14.1168   -73169.802 
   74300     2813.253      14.1168      14.1168      14.1168   -72360.905 
   74400     2813.253      14.1168      14.1168      14.1168   -72655.682 
   74500     2813.253      14.1168      14.1168      14.1168   -73790.028 
   74600     2813.253      14.1168      14.1168      14.1168   -73909.122 
   74700     2813.253      14.1168      14.1168      14.1168   -74757.116 
   74800     2813.253      14.1168      14.1168      14.1168   -76708.366 
   74900     2813.253      14.1168      14.1168      14.1168   -77825.375 
   75000     2813.253      14.1168      14.1168      14.1168   -77984.202 
   75100     2813.253      14.1168      14.1168      14.1168    -76321.71 
   75200     2813.253      14.1168      14.1168      14.1168   -74310.866 
   75300     2813.253      14.1168      14.1168      14.1168   -72383.156 
   75400     2813.253      14.1168      14.1168      14.1168    -71334.86 
   75500     2813.253      14.1168      14.1168      14.1168   -70694.909 
   75600     2813.253      14.1168      14.1168      14.1168   -69828.041 
   75700     2813.253      14.1168      14.1168      14.1168   -69245.517 
   75800     2813.253      14.1168      14.1168      14.1168   -68999.244 
   75900     2813.253      14.1168      14.1168      14.1168   -68440.228 
   76000     2813.253      14.1168      14.1168      14.1168    -67612.26 
   76100     2813.253      14.1168      14.1168      14.1168   -67724.706 
   76200     2813.253      14.1168      14.1168      14.1168   -68385.259 
   76300     2813.253      14.1168      14.1168      14.1168   -69119.387 
   76400     2813.253      14.1168      14.1168      14.1168   -69275.264 
   76500     2813.253      14.1168      14.1168      14.1168   -68368.873 
   76600     2813.253      14.1168      14.1168      14.1168   -66458.838 
   76700     2813.253      14.1168      14.1168      14.1168   -64902.193 
   76800     2813.253      14.1168      14.1168      14.1168   -64785.939 
   76900     2813.253      14.1168      14.1168      14.1168   -66626.983 
   77000     2813.253      14.1168      14.1168      14.1168   -68750.222 
   77100     2813.253      14.1168      14.1168      14.1168   -69646.846 
   77200     2813.253      14.1168      14.1168      14.1168   -69858.555 
   77300     2813.253      14.1168      14.1168      14.1168   -69918.448 
   77400     2813.253      14.1168      14.1168      14.1168    -70434.85 
   77500     2813.253      14.1168      14.1168      14.1168   -71720.928 
   77600     2813.253      14.1168      14.1168      14.1168   -73017.102 
   77700     2813.253      14.1168      14.1168      14.1168   -72658.765 
   77800     2813.253      14.1168      14.1168      14.1168   -71437.553 
   77900     2813.253      14.1168      14.1168      14.1168   -69204.159 
   78000     2813.253      14.1168      14.1168      14.1168    -66054.45 
   78100     2813.253      14.1168      14.1168      14.1168   -63613.289 
   78200     2813.253      14.1168      14.1168      14.1168   -62121.756 
   78300     2813.253      14.1168      14.1168      14.1168   -61513.485 
   78400     2813.253      14.1168      14.1168      14.1168   -62037.262 
   78500     2813.253      14.1168      14.1168      14.1168   -63113.548 
   78600     2813.253      14.1168      14.1168      14.1168   -64451.383 
   78700     2813.253      14.1168      14.1168      14.1168   -64488.133 
   78800     2813.253      14.1168      14.1168      14.1168   -63879.886 
   78900     2813.253      14.1168      14.1168      14.1168   -62244.665 
   79000     2813.253      14.1168      14.1168      14.1168    -61567.57 
   79100     2813.253      14.1168      14.1168      14.1168   -60720.533 
   79200     2813.253      14.1168      14.1168      14.1168   -60735.401 
   79300     2813.253      14.1168      14.1168      14.1168   -61013.817 
   79400     2813.253      14.1168      14.1168      14.1168   -62093.581 
   79500     2813.253      14.1168      14.1168      14.1168   -62953.019 
   79600     2813.253      14.1168      14.1168      14.1168   -62420.724 
   79700     2813.253      14.1168      14.1168      14.1168   -61406.092 
   79800     2813.253      14.1168      14.1168      14.1168   -60161.576 
   79900     2813.253      14.1168      14.1168      14.1168   -59198.287 
   80000     2813.253      14.1168      14.1168      14.1168   -58454.557 
   80100     2813.253      14.1168      14.1168      14.1168   -57595.256 
   80200     2813.253      14.1168      14.1168      14.1168   -56104.762 
   80300     2813.253      14.1168      14.1168      14.1168    -54738.89 
   80400     2813.253      14.1168      14.1168      14.1168   -54392.933 
   80500     2813.253      14.1168      14.1168      14.1168   -55770.001 
   80600     2813.253      14.1168      14.1168      14.1168   -57709.163 
   80700     2813.253      14.1168      14.1168      14.1168   -59190.085 
   80800     2813.253      14.1168      14.1168      14.1168   -59605.721 
   80900     2813.253      14.1168      14.1168      14.1168   -59160.197 
   81000     2813.253      14.1168      14.1168      14.1168   -58177.934 
   81100     2813.253      14.1168      14.1168      14.1168   -58753.475 
   81200     2813.253      14.1168      14.1168      14.1168   -59593.581 
   81300     2813.253      14.1168      14.1168      14.1168   -59393.467 
   81400     2813.253      14.1168      14.1168      14.1168   -59181.011 
   81500     2813.253      14.1168      14.1168      14.1168   -59435.026 
   81600     2813.253      14.1168      14.1168      14.1168   -61367.994 
   81700     2813.253      14.1168      14.1168      14.1168    -63588.49 
   81800     2813.253      14.1168      14.1168      14.1168   -65797.162 
   81900     2813.253      14.1168      14.1168      14.1168   -66471.819 
   82000     2813.253      14.1168      14.1168      14.1168   -68050.485 
   82100     2813.253      14.1168      14.1168      14.1168   -69869.806 
   82200     2813.253      14.1168      14.1168      14.1168   -71125.681 
   82300     2813.253      14.1168      14.1168      14.1168   -71480.524 
   82400     2813.253      14.1168      14.1168      14.1168   -70772.549 
   82500     2813.253      14.1168      14.1168      14.1168   -69859.637 
   82600     2813.253      14.1168      14.1168      14.1168   -69715.419 
   82700     2813.253      14.1168      14.1168      14.1168   -69321.311 
   82800     2813.253      14.1168      14.1168      14.1168    -68802.79 
   82900     2813.253      14.1168      14.1168      14.1168   -68941.307 
   83000     2813.253      14.1168      14.1168      14.1168   -69583.533 
   83100     2813.253      14.1168      14.1168      14.1168   -71323.977 
   83200     2813.253      14.1168      14.1168      14.1168   -73828.757 
   83300     2813.253      14.1168      14.1168      14.1168   -76085.092 
   83400     2813.253      14.1168      14.1168      14.1168   -76950.988 
   83500     2813.253      14.1168      14.1168      14.1168   -76962.625 
   83600     2813.253      14.1168      14.1168      14.1168   -77418.383 
   83700     2813.253      14.1168      14.1168      14.1168   -79547.172 
   83800     2813.253      14.1168      14.1168      14.1168   -81442.637 
   83900     2813.253      14.1168      14.1168      14.1168   -81961.396 
   84000     2813.253      14.1168      14.1168      14.1168   -80905.507 
   84100     2813.253      14.1168      14.1168      14.1168   -78482.483 
   84200     2813.253      14.1168      14.1168      14.1168    -77155.85 
   84300     2813.253      14.1168      14.1168      14.1168   -77027.735 
   84400     2813.253      14.1168      14.1168      14.1168   -76505.622 
   84500     2813.253      14.1168      14.1168      14.1168   -75534.875 
   84600     2813.253      14.1168      14.1168      14.1168   -74100.121 
   84700     2813.253      14.1168      14.1168      14.1168   -73606.501 
   84800     2813.253      14.1168      14.1168      14.1168   -73477.541 
   84900     2813.253      14.1168      14.1168      14.1168   -73745.252 
   85000     2813.253      14.1168      14.1168      14.1168   -73892.763 
   85100     2813.253      14.1168      14.1168      14.1168   -74457.946 
   85200     2813.253      14.1168      14.1168      14.1168   -74300.641 
   85300     2813.253      14.1168      14.1168      14.1168   -73999.767 
   85400     2813.253      14.1168      14.1168      14.1168   -73047.529 
   85500     2813.253      14.1168      14.1168      14.1168   -71061.898 
   85600     2813.253      14.1168      14.1168      14.1168   -68867.622 
   85700     2813.253      14.1168      14.1168      14.1168   -67241.577 
   85800     2813.253      14.1168      14.1168      14.1168     -66313.5 
   85900     2813.253      14.1168      14.1168      14.1168   -66195.501 
   86000     2813.253      14.1168      14.1168      14.1168   -65997.779 
   86100     2813.253      14.1168      14.1168      14.1168    -66052.42 
   86200     2813.253      14.1168      14.1168      14.1168   -65072.373 
   86300     2813.253      14.1168      14.1168      14.1168   -63067.282 
   86400     2813.253      14.1168      14.1168      14.1168   -60601.612 
   86500     2813.253      14.1168      14.1168      14.1168     -58879.7 
   86600     2813.253      14.1168      14.1168      14.1168   -57564.223 
   86700     2813.253      14.1168      14.1168      14.1168    -56949.82 
   86800     2813.253      14.1168      14.1168      14.1168   -58255.974 
   86900     2813.253      14.1168      14.1168      14.1168   -60578.902 
   87000     2813.253      14.1168      14.1168      14.1168   -62344.766 
[...]
  474900     2813.253      14.1168      14.1168      14.1168   -81907.795 
  475000     2813.253      14.1168      14.1168      14.1168   -80594.658 
  475100     2813.253      14.1168      14.1168      14.1168   -78759.269 
  475200     2813.253      14.1168      14.1168      14.1168    -77427.67 
  475300     2813.253      14.1168      14.1168      14.1168   -76989.646 
  475400     2813.253      14.1168      14.1168      14.1168   -77362.151 
  475500     2813.253      14.1168      14.1168      14.1168    -77649.67 
  475600     2813.253      14.1168      14.1168      14.1168   -77483.337 
  475700     2813.253      14.1168      14.1168      14.1168   -76876.037 
  475800     2813.253      14.1168      14.1168      14.1168   -76204.481 
  475900     2813.253      14.1168      14.1168      14.1168   -75601.692 
  476000     2813.253      14.1168      14.1168      14.1168   -74646.072 
  476100     2813.253      14.1168      14.1168      14.1168   -73309.157 
  476200     2813.253      14.1168      14.1168      14.1168   -72129.969 
  476300     2813.253      14.1168      14.1168      14.1168   -71805.251 
  476400     2813.253      14.1168      14.1168      14.1168    -72625.41 
  476500     2813.253      14.1168      14.1168      14.1168   -73664.015 
  476600     2813.253      14.1168      14.1168      14.1168   -73802.092 
  476700     2813.253      14.1168      14.1168      14.1168   -73499.536 
  476800     2813.253      14.1168      14.1168      14.1168   -72349.311 
  476900     2813.253      14.1168      14.1168      14.1168   -69953.098 
  477000     2813.253      14.1168      14.1168      14.1168   -66980.686 
  477100     2813.253      14.1168      14.1168      14.1168   -62903.081 
  477200     2813.253      14.1168      14.1168      14.1168   -59878.941 
  477300     2813.253      14.1168      14.1168      14.1168   -59979.326 
  477400     2813.253      14.1168      14.1168      14.1168   -63198.049 
  477500     2813.253      14.1168      14.1168      14.1168   -66565.193 
  477600     2813.253      14.1168      14.1168      14.1168   -69461.863 
  477700     2813.253      14.1168      14.1168      14.1168   -71166.179 
  477800     2813.253      14.1168      14.1168      14.1168   -72692.025 
  477900     2813.253      14.1168      14.1168      14.1168   -74909.266 
  478000     2813.253      14.1168      14.1168      14.1168   -77705.247 
  478100     2813.253      14.1168      14.1168      14.1168   -79420.515 
  478200     2813.253      14.1168      14.1168      14.1168   -80118.073 
  478300     2813.253      14.1168      14.1168      14.1168   -79470.557 
  478400     2813.253      14.1168      14.1168      14.1168   -78295.001 
  478500     2813.253      14.1168      14.1168      14.1168    -77754.11 
  478600     2813.253      14.1168      14.1168      14.1168   -77921.331 
  478700     2813.253      14.1168      14.1168      14.1168   -77700.368 
  478800     2813.253      14.1168      14.1168      14.1168   -77461.055 
  478900     2813.253      14.1168      14.1168      14.1168   -78157.956 
  479000     2813.253      14.1168      14.1168      14.1168   -79368.752 
  479100     2813.253      14.1168      14.1168      14.1168   -80157.516 
  479200     2813.253      14.1168      14.1168      14.1168   -80105.359 
  479300     2813.253      14.1168      14.1168      14.1168    -80384.54 
  479400     2813.253      14.1168      14.1168      14.1168   -80001.765 
  479500     2813.253      14.1168      14.1168      14.1168   -77593.505 
  479600     2813.253      14.1168      14.1168      14.1168   -73980.212 
  479700     2813.253      14.1168      14.1168      14.1168    -71679.55 
  479800     2813.253      14.1168      14.1168      14.1168   -71306.741 
  479900     2813.253      14.1168      14.1168      14.1168   -72253.759 
  480000     2813.253      14.1168      14.1168      14.1168   -72581.624 
  480100     2813.253      14.1168      14.1168      14.1168   -72693.431 
  480200     2813.253      14.1168      14.1168      14.1168   -72801.017 
  480300     2813.253      14.1168      14.1168      14.1168   -73303.289 
  480400     2813.253      14.1168      14.1168      14.1168   -74396.635 
  480500     2813.253      14.1168      14.1168      14.1168   -75997.794 
  480600     2813.253      14.1168      14.1168      14.1168   -76692.473 
  480700     2813.253      14.1168      14.1168      14.1168   -75949.476 
  480800     2813.253      14.1168      14.1168      14.1168   -74001.862 
  480900     2813.253      14.1168      14.1168      14.1168   -72448.472 
  481000     2813.253      14.1168      14.1168      14.1168   -72135.028 
  481100     2813.253      14.1168      14.1168      14.1168   -72023.147 
  481200     2813.253      14.1168      14.1168      14.1168   -71178.016 
  481300     2813.253      14.1168      14.1168      14.1168   -69289.392 
  481400     2813.253      14.1168      14.1168      14.1168   -68203.656 
  481500     2813.253      14.1168      14.1168      14.1168   -67637.331 
  481600     2813.253      14.1168      14.1168      14.1168   -67954.976 
  481700     2813.253      14.1168      14.1168      14.1168   -69201.173 
  481800     2813.253      14.1168      14.1168      14.1168   -71380.435 
  481900     2813.253      14.1168      14.1168      14.1168   -74216.498 
  482000     2813.253      14.1168      14.1168      14.1168   -76789.807 
  482100     2813.253      14.1168      14.1168      14.1168    -78437.85 
  482200     2813.253      14.1168      14.1168      14.1168   -78436.105 
  482300     2813.253      14.1168      14.1168      14.1168   -77165.976 
  482400     2813.253      14.1168      14.1168      14.1168   -75832.273 
  482500     2813.253      14.1168      14.1168      14.1168   -74624.411 
  482600     2813.253      14.1168      14.1168      14.1168     -73885.3 
  482700     2813.253      14.1168      14.1168      14.1168   -73640.639 
  482800     2813.253      14.1168      14.1168      14.1168   -74768.726 
  482900     2813.253      14.1168      14.1168      14.1168   -76977.609 
  483000     2813.253      14.1168      14.1168      14.1168   -78905.472 
  483100     2813.253      14.1168      14.1168      14.1168   -79642.229 
  483200     2813.253      14.1168      14.1168      14.1168   -79694.355 
  483300     2813.253      14.1168      14.1168      14.1168   -78918.265 
  483400     2813.253      14.1168      14.1168      14.1168   -78843.719 
  483500     2813.253      14.1168      14.1168      14.1168   -79803.185 
  483600     2813.253      14.1168      14.1168      14.1168   -79959.417 
  483700     2813.253      14.1168      14.1168      14.1168   -78558.279 
  483800     2813.253      14.1168      14.1168      14.1168   -75920.848 
  483900     2813.253      14.1168      14.1168      14.1168   -73966.652 
  484000     2813.253      14.1168      14.1168      14.1168   -72672.405 
  484100     2813.253      14.1168      14.1168      14.1168   -70999.882 
  484200     2813.253      14.1168      14.1168      14.1168   -70214.909 
  484300     2813.253      14.1168      14.1168      14.1168   -69926.115 
  484400     2813.253      14.1168      14.1168      14.1168   -70746.385 
  484500     2813.253      14.1168      14.1168      14.1168    -71867.07 
  484600     2813.253      14.1168      14.1168      14.1168    -73857.85 
  484700     2813.253      14.1168      14.1168      14.1168   -74278.361 
  484800     2813.253      14.1168      14.1168      14.1168   -73695.776 
  484900     2813.253      14.1168      14.1168      14.1168   -73269.532 
  485000     2813.253      14.1168      14.1168      14.1168   -73787.128 
  485100     2813.253      14.1168      14.1168      14.1168   -74386.325 
  485200     2813.253      14.1168      14.1168      14.1168   -74866.948 
  485300     2813.253      14.1168      14.1168      14.1168   -75026.257 
  485400     2813.253      14.1168      14.1168      14.1168   -75727.189 
  485500     2813.253      14.1168      14.1168      14.1168   -76714.242 
  485600     2813.253      14.1168      14.1168      14.1168    -77488.73 
  485700     2813.253      14.1168      14.1168      14.1168   -77014.759 
  485800     2813.253      14.1168      14.1168      14.1168    -76035.16 
  485900     2813.253      14.1168      14.1168      14.1168   -74688.674 
  486000     2813.253      14.1168      14.1168      14.1168   -74485.585 
  486100     2813.253      14.1168      14.1168      14.1168   -75375.714 
  486200     2813.253      14.1168      14.1168      14.1168   -77006.014 
  486300     2813.253      14.1168      14.1168      14.1168   -78901.465 
  486400     2813.253      14.1168      14.1168      14.1168   -80947.537 
  486500     2813.253      14.1168      14.1168      14.1168   -82035.508 
  486600     2813.253      14.1168      14.1168      14.1168   -82607.796 
  486700     2813.253      14.1168      14.1168      14.1168   -83161.564 
  486800     2813.253      14.1168      14.1168      14.1168   -83324.825 
  486900     2813.253      14.1168      14.1168      14.1168    -83228.07 
  487000     2813.253      14.1168      14.1168      14.1168   -82758.886 
  487100     2813.253      14.1168      14.1168      14.1168   -81410.798 
  487200     2813.253      14.1168      14.1168      14.1168   -79081.268 
  487300     2813.253      14.1168      14.1168      14.1168   -76763.155 
  487400     2813.253      14.1168      14.1168      14.1168   -75719.724 
  487500     2813.253      14.1168      14.1168      14.1168   -75916.981 
  487600     2813.253      14.1168      14.1168      14.1168   -76586.475 
  487700     2813.253      14.1168      14.1168      14.1168   -77519.228 
  487800     2813.253      14.1168      14.1168      14.1168    -77475.25 
  487900     2813.253      14.1168      14.1168      14.1168    -78610.07 
  488000     2813.253      14.1168      14.1168      14.1168   -80598.509 
  488100     2813.253      14.1168      14.1168      14.1168   -82242.375 
  488200     2813.253      14.1168      14.1168      14.1168   -82795.606 
  488300     2813.253      14.1168      14.1168      14.1168    -83042.67 
  488400     2813.253      14.1168      14.1168      14.1168   -83153.298 
  488500     2813.253      14.1168      14.1168      14.1168   -84193.134 
  488600     2813.253      14.1168      14.1168      14.1168   -85467.639 
  488700     2813.253      14.1168      14.1168      14.1168   -86679.192 
  488800     2813.253      14.1168      14.1168      14.1168   -87575.879 
  488900     2813.253      14.1168      14.1168      14.1168   -88527.491 
  489000     2813.253      14.1168      14.1168      14.1168   -89746.229 
  489100     2813.253      14.1168      14.1168      14.1168   -89895.264 
  489200     2813.253      14.1168      14.1168      14.1168   -89186.376 
  489300     2813.253      14.1168      14.1168      14.1168   -88512.131 
  489400     2813.253      14.1168      14.1168      14.1168   -88822.181 
  489500     2813.253      14.1168      14.1168      14.1168   -89786.573 
  489600     2813.253      14.1168      14.1168      14.1168   -91114.629 
  489700     2813.253      14.1168      14.1168      14.1168   -92327.535 
  489800     2813.253      14.1168      14.1168      14.1168   -93226.538 
  489900     2813.253      14.1168      14.1168      14.1168   -93363.125 
  490000     2813.253      14.1168      14.1168      14.1168   -93035.549 
  490100     2813.253      14.1168      14.1168      14.1168    -93078.82 
  490200     2813.253      14.1168      14.1168      14.1168   -93259.529 
  490300     2813.253      14.1168      14.1168      14.1168   -94067.056 
  490400     2813.253      14.1168      14.1168      14.1168   -95837.618 
  490500     2813.253      14.1168      14.1168      14.1168   -97751.372 
  490600     2813.253      14.1168      14.1168      14.1168   -99491.217 
  490700     2813.253      14.1168      14.1168      14.1168   -100283.28 
  490800     2813.253      14.1168      14.1168      14.1168   -99941.515 
  490900     2813.253      14.1168      14.1168      14.1168   -99458.692 
  491000     2813.253      14.1168      14.1168      14.1168   -99505.833 
  491100     2813.253      14.1168      14.1168      14.1168   -99797.906 
  491200     2813.253      14.1168      14.1168      14.1168   -99697.505 
  491300     2813.253      14.1168      14.1168      14.1168    -98073.97 
  491400     2813.253      14.1168      14.1168      14.1168   -95675.882 
  491500     2813.253      14.1168      14.1168      14.1168   -93936.856 
  491600     2813.253      14.1168      14.1168      14.1168   -93336.184 
  491700     2813.253      14.1168      14.1168      14.1168   -93467.687 
  491800     2813.253      14.1168      14.1168      14.1168    -93433.99 
  491900     2813.253      14.1168      14.1168      14.1168   -93573.949 
  492000     2813.253      14.1168      14.1168      14.1168   -93732.647 
  492100     2813.253      14.1168      14.1168      14.1168   -93716.903 
  492200     2813.253      14.1168      14.1168      14.1168   -93305.143 
  492300     2813.253      14.1168      14.1168      14.1168   -92442.835 
  492400     2813.253      14.1168      14.1168      14.1168   -91401.656 
  492500     2813.253      14.1168      14.1168      14.1168   -89830.073 
  492600     2813.253      14.1168      14.1168      14.1168   -88632.649 
  492700     2813.253      14.1168      14.1168      14.1168   -87461.554 
  492800     2813.253      14.1168      14.1168      14.1168    -86697.49 
  492900     2813.253      14.1168      14.1168      14.1168   -85596.412 
  493000     2813.253      14.1168      14.1168      14.1168   -84568.722 
  493100     2813.253      14.1168      14.1168      14.1168   -83330.115 
  493200     2813.253      14.1168      14.1168      14.1168   -83499.952 
  493300     2813.253      14.1168      14.1168      14.1168   -85478.031 
  493400     2813.253      14.1168      14.1168      14.1168   -86812.074 
  493500     2813.253      14.1168      14.1168      14.1168   -85638.412 
  493600     2813.253      14.1168      14.1168      14.1168   -83400.274 
  493700     2813.253      14.1168      14.1168      14.1168   -81432.953 
  493800     2813.253      14.1168      14.1168      14.1168   -81220.871 
  493900     2813.253      14.1168      14.1168      14.1168   -82401.672 
  494000     2813.253      14.1168      14.1168      14.1168   -83026.355 
  494100     2813.253      14.1168      14.1168      14.1168   -83423.055 
  494200     2813.253      14.1168      14.1168      14.1168   -84561.136 
  494300     2813.253      14.1168      14.1168      14.1168   -85752.209 
  494400     2813.253      14.1168      14.1168      14.1168    -86285.95 
  494500     2813.253      14.1168      14.1168      14.1168   -86126.414 
  494600     2813.253      14.1168      14.1168      14.1168   -84457.927 
  494700     2813.253      14.1168      14.1168      14.1168   -82783.939 
  494800     2813.253      14.1168      14.1168      14.1168   -81755.253 
  494900     2813.253      14.1168      14.1168      14.1168    -81422.48 
  495000     2813.253      14.1168      14.1168      14.1168    -82011.86 
  495100     2813.253      14.1168      14.1168      14.1168   -83350.199 
  495200     2813.253      14.1168      14.1168      14.1168   -83971.533 
  495300     2813.253      14.1168      14.1168      14.1168   -83903.522 
  495400     2813.253      14.1168      14.1168      14.1168   -84108.574 
  495500     2813.253      14.1168      14.1168      14.1168   -84768.496 
  495600     2813.253      14.1168      14.1168      14.1168   -85920.893 
  495700     2813.253      14.1168      14.1168      14.1168   -86020.644 
  495800     2813.253      14.1168      14.1168      14.1168   -84667.476 
  495900     2813.253      14.1168      14.1168      14.1168   -82221.474 
  496000     2813.253      14.1168      14.1168      14.1168   -78687.391 
  496100     2813.253      14.1168      14.1168      14.1168    -76019.61 
  496200     2813.253      14.1168      14.1168      14.1168   -75081.035 
  496300     2813.253      14.1168      14.1168      14.1168   -75200.688 
  496400     2813.253      14.1168      14.1168      14.1168   -75472.539 
  496500     2813.253      14.1168      14.1168      14.1168   -75613.707 
  496600     2813.253      14.1168      14.1168      14.1168   -75090.724 
  496700     2813.253      14.1168      14.1168      14.1168   -74515.985 
  496800     2813.253      14.1168      14.1168      14.1168    -74335.21 
  496900     2813.253      14.1168      14.1168      14.1168   -73545.001 
  497000     2813.253      14.1168      14.1168      14.1168   -72115.737 
  497100     2813.253      14.1168      14.1168      14.1168    -70663.11 
  497200     2813.253      14.1168      14.1168      14.1168   -70407.237 
  497300     2813.253      14.1168      14.1168      14.1168   -71802.925 
  497400     2813.253      14.1168      14.1168      14.1168   -73813.392 
  497500     2813.253      14.1168      14.1168      14.1168   -74690.516 
  497600     2813.253      14.1168      14.1168      14.1168   -75050.983 
  497700     2813.253      14.1168      14.1168      14.1168   -74834.704 
  497800     2813.253      14.1168      14.1168      14.1168    -74489.91 
  497900     2813.253      14.1168      14.1168      14.1168   -74452.994 
  498000     2813.253      14.1168      14.1168      14.1168   -75277.005 
  498100     2813.253      14.1168      14.1168      14.1168   -76585.318 
  498200     2813.253      14.1168      14.1168      14.1168   -78350.043 
  498300     2813.253      14.1168      14.1168      14.1168   -80276.092 
  498400     2813.253      14.1168      14.1168      14.1168   -82100.984 
  498500     2813.253      14.1168      14.1168      14.1168   -82961.986 
  498600     2813.253      14.1168      14.1168      14.1168   -82388.653 
  498700     2813.253      14.1168      14.1168      14.1168   -80768.226 
  498800     2813.253      14.1168      14.1168      14.1168   -79857.173 
  498900     2813.253      14.1168      14.1168      14.1168   -80801.383 
  499000     2813.253      14.1168      14.1168      14.1168   -83369.691 
  499100     2813.253      14.1168      14.1168      14.1168   -85917.499 
  499200     2813.253      14.1168      14.1168      14.1168   -87316.696 
  499300     2813.253      14.1168      14.1168      14.1168   -87753.656 
  499400     2813.253      14.1168      14.1168      14.1168   -88137.702 
  499500     2813.253      14.1168      14.1168      14.1168   -88951.875 
  499600     2813.253      14.1168      14.1168      14.1168    -89655.16 
  499700     2813.253      14.1168      14.1168      14.1168   -90153.232 
  499800     2813.253      14.1168      14.1168      14.1168   -90338.881 
  499900     2813.253      14.1168      14.1168      14.1168   -89651.655 
  500000     2813.253      14.1168      14.1168      14.1168   -88309.108 
Loop time of 134.165 on 1 procs for 500000 steps with 172 atoms

Performance: 32.199 ns/day, 0.745 hours/ns, 3726.756 timesteps/s
100.0% CPU use with 1 MPI tasks x 1 OpenMP threads

MPI task timing breakdown:
Section |  min time  |  avg time  |  max time  |%varavg| %total
---------------------------------------------------------------
Pair    | 125.81     | 125.81     | 125.81     |   0.0 | 93.78
Neigh   | 4.8053     | 4.8053     | 4.8053     |   0.0 |  3.58
Comm    | 1.8269     | 1.8269     | 1.8269     |   0.0 |  1.36
Output  | 0.048174   | 0.048174   | 0.048174   |   0.0 |  0.04
Modify  | 1.2542     | 1.2542     | 1.2542     |   0.0 |  0.93
Other   |            | 0.4171     |            |       |  0.31

Nlocal:    172 ave 172 max 172 min
Histogram: 1 0 0 0 0 0 0 0 0 0
Nghost:    1010 ave 1010 max 1010 min
Histogram: 1 0 0 0 0 0 0 0 0 0
Neighs:    5825 ave 5825 max 5825 min
Histogram: 1 0 0 0 0 0 0 0 0 0

Total # of neighbors = 5825
Ave neighs/atom = 33.8663
Neighbor list builds = 25306
Dangerous builds = 0
