
units 		metal
dimension 	3
boundary 	p p p
atom_style 	atomic


#--------------Create Atom----------------------------

read_data	data.CuNi${SIMNUM} #append num for atoms or time
read_data	data.CuNi5 
  orthogonal box = (-0.02 -0.02 -0.02) to (18.42 18.42 18.42)
  1 by 1 by 1 MPI processor grid
  reading atoms ...
  365 atoms
  reading velocities ...
  365 velocities


#---------------Define Interatomic Potential----------

pair_style eam/alloy
pair_coeff * * CuNi.eam.alloy Ni Cu
Reading potential file CuNi.eam.alloy with DATE: 2014-07-11
neighbor .05 bin
neigh_modify delay 10 check yes

#---------------Define Settings--------------


#---------------Specify Volume------------------------

change_box all x scale ${SCALE} y scale ${SCALE} z scale ${SCALE}
change_box all x scale 1.02 y scale ${SCALE} z scale ${SCALE}
change_box all x scale 1.02 y scale 1.02 z scale ${SCALE}
change_box all x scale 1.02 y scale 1.02 z scale 1.02
  orthogonal box = (-0.2044 -0.02 -0.02) to (18.6044 18.42 18.42)
  orthogonal box = (-0.2044 -0.2044 -0.02) to (18.6044 18.6044 18.42)
  orthogonal box = (-0.2044 -0.2044 -0.2044) to (18.6044 18.6044 18.6044)

#---------------Run Minimization----------------------

reset_timestep 0
timestep 0.0001
thermo          100
thermo_style    custom step temp pe etotal press lx ly lz



min_style cg # use conjugate gradient method
minimize 1.0e-4 1.0e-6 100 100000
WARNING: Using 'neigh_modify every 1 delay 0 check yes' setting during minimization (src/min.cpp:168)
Neighbor list info ...
  update every 1 steps, delay 0 steps, check yes
  max neighbors/atom: 2000, page size: 100000
  master list distance cutoff = 6.44433
  ghost atom cutoff = 6.44433
  binsize = 3.22217, bins = 6 6 6
  1 neighbor lists, perpetual/occasional/extra = 1 0 0
  (1) pair eam/alloy, perpetual
      attributes: half, newton on
      pair build: half/bin/atomonly/newton
      stencil: half/bin/3d/newton
      bin: standard
Per MPI rank memory allocation (min/avg/max) = 4.113 | 4.113 | 4.113 Mbytes
Step Temp PotEng TotEng Press Lx Ly Lz 
       0            0    24168.489    24168.489    2179072.9      18.8088      18.8088      18.8088 
     100            0   -1258.9688   -1258.9688   -41601.625      18.8088      18.8088      18.8088 
Loop time of 0.0848944 on 1 procs for 100 steps with 365 atoms

100.0% CPU use with 1 MPI tasks x 1 OpenMP threads

Minimization stats:
  Stopping criterion = max iterations
  Energy initial, next-to-last, final = 
         24168.4892252     -1257.93980145     -1258.96878907
  Force two-norm initial, final = 9897.01 2.34063
  Force max component initial, final = 1231 0.76812
  Final line search alpha, max atom move = 0.126353 0.0970542
  Iterations, force evaluations = 100 100

MPI task timing breakdown:
Section |  min time  |  avg time  |  max time  |%varavg| %total
---------------------------------------------------------------
Pair    | 0.048439   | 0.048439   | 0.048439   |   0.0 | 57.06
Neigh   | 0.033166   | 0.033166   | 0.033166   |   0.0 | 39.07
Comm    | 0.0019247  | 0.0019247  | 0.0019247  |   0.0 |  2.27
Output  | 1.2262e-05 | 1.2262e-05 | 1.2262e-05 |   0.0 |  0.01
Modify  | 0          | 0          | 0          |   0.0 |  0.00
Other   |            | 0.001353   |            |       |  1.59

Nlocal:    365 ave 365 max 365 min
Histogram: 1 0 0 0 0 0 0 0 0 0
Nghost:    1198 ave 1198 max 1198 min
Histogram: 1 0 0 0 0 0 0 0 0 0
Neighs:    12968 ave 12968 max 12968 min
Histogram: 1 0 0 0 0 0 0 0 0 0

Total # of neighbors = 12968
Ave neighs/atom = 35.5288
Neighbor list builds = 100
Dangerous builds = 100


reset_timestep 0


#------ Make variables which I can use to check the pressure and temperature--------
compute         my_temp all temp
compute         mypress all pressure my_temp
variable        glpress equal "c_mypress"

fix             avepress all ave/time 1 100 100 c_mypress mode scalar ave one start 1000 #file ave.press
variable        presssq equal "v_glpress * v_glpress"
fix             avepresssq all ave/time 1 100 100 v_presssq mode scalar ave one start 1000 #file ave.presssq
variable        variance equal  "f_avepresssq - f_avepress*f_avepress"


#---------------SPECIFYING ENSEMBLE----------------------
fix 1 all nvt temp ${TEMP} ${TEMP} 1.0
fix 1 all nvt temp 1000 ${TEMP} 1.0
fix 1 all nvt temp 1000 1000 1.0


#----------------Run Simulation------------------------
# Do a short run to have data to average.
thermo          100
thermo_style    custom step temp pe etotal press lx ly lz v_variance

run 4000
Per MPI rank memory allocation (min/avg/max) = 2.988 | 2.988 | 2.988 Mbytes
Step Temp PotEng TotEng Press Lx Ly Lz v_variance 
       0            0   -1258.9688   -1258.9688   -41601.625      18.8088      18.8088      18.8088            0 
     100   0.86632331   -1259.0095   -1258.9688   -41550.496      18.8088      18.8088      18.8088            0 
     200    3.0089377   -1259.1103   -1258.9688    -41408.61      18.8088      18.8088      18.8088            0 
     300    5.6488874   -1259.2344   -1258.9687   -41096.733      18.8088      18.8088      18.8088            0 
     400    8.6204194    -1259.374   -1258.9684   -40637.688      18.8088      18.8088      18.8088            0 
     500    12.578655   -1259.5598    -1258.968   -40128.975      18.8088      18.8088      18.8088            0 
     600    18.083929    -1259.818   -1258.9672   -39567.244      18.8088      18.8088      18.8088            0 
     700    24.830018   -1260.1342   -1258.9659   -38826.478      18.8088      18.8088      18.8088            0 
     800    31.967513    -1260.468   -1258.9639   -37989.102      18.8088      18.8088      18.8088            0 
     900    39.170155   -1260.8041   -1258.9611   -37010.573      18.8088      18.8088      18.8088            0 
    1000    46.947312   -1261.1662   -1258.9573   -35915.469      18.8088      18.8088      18.8088    104522.64 
    1100    55.971067   -1261.5858   -1258.9523   -34878.316      18.8088      18.8088      18.8088    86513.431 
    1200     65.94763   -1262.0488   -1258.9459   -33707.829      18.8088      18.8088      18.8088    114719.78 
    1300    75.863772   -1262.5073   -1258.9379   -32316.635      18.8088      18.8088      18.8088    158339.08 
    1400    85.343286   -1262.9436   -1258.9281     -30767.1      18.8088      18.8088      18.8088    199943.58 
    1500    94.814741   -1263.3776   -1258.9165   -29208.802      18.8088      18.8088      18.8088    205889.74 
    1600    104.75612   -1263.8318   -1258.9029   -27598.582      18.8088      18.8088      18.8088    209401.01 
    1700    114.77511   -1264.2875   -1258.8872   -25808.552      18.8088      18.8088      18.8088    266600.87 
    1800    123.70066   -1264.6897   -1258.8695     -23991.6      18.8088      18.8088      18.8088    276633.88 
    1900    130.50064   -1264.9899   -1258.8498   -22007.063      18.8088      18.8088      18.8088    337183.55 
    2000    135.11887    -1265.186   -1258.8286   -20033.971      18.8088      18.8088      18.8088    323642.07 
    2100    138.16008   -1265.3067   -1258.8062   -17848.665      18.8088      18.8088      18.8088    396115.52 
    2200    141.20853   -1265.4267   -1258.7828   -15807.527      18.8088      18.8088      18.8088    349036.18 
    2300    145.67532   -1265.6124   -1258.7583   -13603.512      18.8088      18.8088      18.8088    407415.64 
    2400    150.97127   -1265.8359   -1258.7326   -11585.752      18.8088      18.8088      18.8088    348122.83 
    2500    155.39265   -1266.0172   -1258.7059    -9625.788      18.8088      18.8088      18.8088    326599.84 
    2600    158.53177   -1266.1374   -1258.6783   -7807.8716      18.8088      18.8088      18.8088    267362.35 
    2700    160.83339   -1266.2176   -1258.6503   -5940.0395      18.8088      18.8088      18.8088    292730.14 
    2800    162.23346   -1266.2551   -1258.6219   -4068.7103      18.8088      18.8088      18.8088    291661.25 
    2900    161.98233    -1266.215   -1258.5936   -2450.5919      18.8088      18.8088      18.8088    207233.38 
    3000    159.64207   -1266.0771   -1258.5658   -861.98052      18.8088      18.8088      18.8088    196993.73 
    3100    157.02615   -1265.9269   -1258.5387    394.14236      18.8088      18.8088      18.8088    130334.76 
    3200    157.87933   -1265.9405   -1258.5121    1640.6576      18.8088      18.8088      18.8088    140139.39 
    3300    162.12763   -1266.1137   -1258.4855    2552.8796      18.8088      18.8088      18.8088     73528.88 
    3400     166.2877   -1266.2824   -1258.4585    3206.5736      18.8088      18.8088      18.8088    36151.049 
    3500    168.65477   -1266.3667   -1258.4314    3738.8353      18.8088      18.8088      18.8088    20599.027 
    3600    169.80871   -1266.3941   -1258.4045    4107.9394      18.8088      18.8088      18.8088    10885.358 
    3700    171.04526   -1266.4256   -1258.3778    4311.2769      18.8088      18.8088      18.8088      5325.53 
    3800    172.64375   -1266.4743   -1258.3513    4263.3361      18.8088      18.8088      18.8088     290.8576 
    3900    173.11208   -1266.4701   -1258.3251    3995.6012      18.8088      18.8088      18.8088    5752.5141 
    4000    171.58641   -1266.3725   -1258.2993    3506.0688      18.8088      18.8088      18.8088    18323.863 
Loop time of 2.28983 on 1 procs for 4000 steps with 365 atoms

Performance: 15.093 ns/day, 1.590 hours/ns, 1746.857 timesteps/s
100.0% CPU use with 1 MPI tasks x 1 OpenMP threads

MPI task timing breakdown:
Section |  min time  |  avg time  |  max time  |%varavg| %total
---------------------------------------------------------------
Pair    | 2.1907     | 2.1907     | 2.1907     |   0.0 | 95.67
Neigh   | 0.045923   | 0.045923   | 0.045923   |   0.0 |  2.01
Comm    | 0.016024   | 0.016024   | 0.016024   |   0.0 |  0.70
Output  | 0.00047771 | 0.00047771 | 0.00047771 |   0.0 |  0.02
Modify  | 0.03103    | 0.03103    | 0.03103    |   0.0 |  1.36
Other   |            | 0.005639   |            |       |  0.25

Nlocal:    365 ave 365 max 365 min
Histogram: 1 0 0 0 0 0 0 0 0 0
Nghost:    1155 ave 1155 max 1155 min
Histogram: 1 0 0 0 0 0 0 0 0 0
Neighs:    13704 ave 13704 max 13704 min
Histogram: 1 0 0 0 0 0 0 0 0 0

Total # of neighbors = 13704
Ave neighs/atom = 37.5452
Neighbor list builds = 122
Dangerous builds = 0


# Begin lopping until the variance in the pressure is below a given value

variable        loopNum loop 1000

label           loop
if              "${variance} > 1000" then "run 2000" "next loopNum" "jump SELF loop" else "print 'continue'"
run 2000
Per MPI rank memory allocation (min/avg/max) = 2.988 | 2.988 | 2.988 Mbytes
Step Temp PotEng TotEng Press Lx Ly Lz v_variance 
    4000    171.58641   -1266.3725   -1258.2993    3506.0688      18.8088      18.8088      18.8088    18323.863 
    4100    169.74636   -1266.2608   -1258.2741    2821.5614      18.8088      18.8088      18.8088    36255.361 
    4200    169.69902   -1266.2337   -1258.2493    1798.1955      18.8088      18.8088      18.8088    81096.794 
    4300    171.86836   -1266.3111   -1258.2246    563.72675      18.8088      18.8088      18.8088     122106.7 
    4400    175.84546   -1266.4732   -1258.1996   -967.80324      18.8088      18.8088      18.8088    216566.52 
    4500    181.57584   -1266.7173    -1258.174   -2778.8964      18.8088      18.8088      18.8088    291394.99 
    4600    189.08493   -1267.0441   -1258.1476   -4607.0843      18.8088      18.8088      18.8088    288924.96 
    4700    196.77302   -1267.3784   -1258.1201   -6337.2772      18.8088      18.8088      18.8088    258310.67 
    4800    202.19559   -1267.6051   -1258.0916   -8177.4576      18.8088      18.8088      18.8088    284687.96 
    4900    204.06391    -1267.664   -1258.0627    -9864.838      18.8088      18.8088      18.8088    224727.59 
    5000    204.47176    -1267.654   -1258.0335   -11533.028      18.8088      18.8088      18.8088    230646.56 
    5100    207.80335   -1267.7813    -1258.004    -13259.89      18.8088      18.8088      18.8088    250810.15 
    5200    215.00058   -1268.0895   -1257.9735   -15094.206      18.8088      18.8088      18.8088    268311.39 
    5300    221.03534   -1268.3417   -1257.9418     -16756.8      18.8088      18.8088      18.8088    238343.06 
    5400    222.01949   -1268.3556   -1257.9094   -18255.509      18.8088      18.8088      18.8088    175147.43 
    5500    219.72892   -1268.2152   -1257.8768   -19526.992      18.8088      18.8088      18.8088    129684.12 
    5600     217.8766   -1268.0955   -1257.8443    -20620.95      18.8088      18.8088      18.8088    102153.53 
    5700    218.07074   -1268.0719   -1257.8115   -21690.676      18.8088      18.8088      18.8088    98975.049 
    5800    219.55615   -1268.1086   -1257.7783   -22481.543      18.8088      18.8088      18.8088     54223.44 
    5900    220.78341   -1268.1325   -1257.7445   -23402.182      18.8088      18.8088      18.8088    76634.854 
    6000    220.55471   -1268.0875   -1257.7102   -23998.617      18.8088      18.8088      18.8088    32273.544 
Loop time of 1.17099 on 1 procs for 2000 steps with 365 atoms

Performance: 14.757 ns/day, 1.626 hours/ns, 1707.957 timesteps/s
100.0% CPU use with 1 MPI tasks x 1 OpenMP threads

MPI task timing breakdown:
Section |  min time  |  avg time  |  max time  |%varavg| %total
---------------------------------------------------------------
Pair    | 1.1011     | 1.1011     | 1.1011     |   0.0 | 94.03
Neigh   | 0.040635   | 0.040635   | 0.040635   |   0.0 |  3.47
Comm    | 0.0088303  | 0.0088303  | 0.0088303  |   0.0 |  0.75
Output  | 0.00022942 | 0.00022942 | 0.00022942 |   0.0 |  0.02
Modify  | 0.017473   | 0.017473   | 0.017473   |   0.0 |  1.49
Other   |            | 0.002699   |            |       |  0.23

Nlocal:    365 ave 365 max 365 min
Histogram: 1 0 0 0 0 0 0 0 0 0
Nghost:    1193 ave 1193 max 1193 min
Histogram: 1 0 0 0 0 0 0 0 0 0
Neighs:    13323 ave 13323 max 13323 min
Histogram: 1 0 0 0 0 0 0 0 0 0

Total # of neighbors = 13323
Ave neighs/atom = 36.5014
Neighbor list builds = 107
Dangerous builds = 0
next loopNum
jump SELF loop
if              "${variance} > 1000" then "run 2000" "next loopNum" "jump SELF loop" else "print 'continue'"
run 2000
Per MPI rank memory allocation (min/avg/max) = 2.988 | 2.988 | 2.988 Mbytes
Step Temp PotEng TotEng Press Lx Ly Lz v_variance 
    6000    220.55471   -1268.0875   -1257.7102   -23998.617      18.8088      18.8088      18.8088    32273.544 
    6100    219.14824   -1267.9868   -1257.6757   -24423.049      18.8088      18.8088      18.8088    10812.711 
    6200    217.88465   -1267.8926    -1257.641   -24701.187      18.8088      18.8088      18.8088    3258.2844 
    6300    217.93961   -1267.8602    -1257.606   -25018.836      18.8088      18.8088      18.8088    7182.9397 
    6400    219.63287   -1267.9042   -1257.5704   -25289.869      18.8088      18.8088      18.8088    4219.4807 
    6500    222.48923   -1268.0023    -1257.534   -25441.551      18.8088      18.8088      18.8088    1192.8278 
    6600    225.73902   -1268.1178   -1257.4967   -25410.149      18.8088      18.8088      18.8088    261.29164 
    6700    228.66683   -1268.2173   -1257.4584   -25484.066      18.8088      18.8088      18.8088    858.06764 
    6800    230.47268   -1268.2632   -1257.4193   -25254.756      18.8088      18.8088      18.8088    4724.7363 
    6900    230.99583   -1268.2482   -1257.3796    -24951.66      18.8088      18.8088      18.8088     7545.195 
    7000    231.00396   -1268.2085   -1257.3396   -24418.204      18.8088      18.8088      18.8088    25082.046 
    7100    231.91128   -1268.2107   -1257.2991   -23843.265      18.8088      18.8088      18.8088    29514.719 
    7200     234.3326   -1268.2834   -1257.2579   -23240.547      18.8088      18.8088      18.8088    29447.913 
    7300    237.87377    -1268.408   -1257.2159   -22478.015      18.8088      18.8088      18.8088    48322.291 
    7400     241.6452   -1268.5424   -1257.1729   -21488.299      18.8088      18.8088      18.8088    85350.332 
    7500    245.14753   -1268.6632   -1257.1288   -20574.916      18.8088      18.8088      18.8088    79905.606 
    7600    247.70449   -1268.7386    -1257.084   -19570.833      18.8088      18.8088      18.8088    100324.28 
    7700    249.25769   -1268.7662   -1257.0385   -18674.708      18.8088      18.8088      18.8088    67291.733 
    7800    250.93371   -1268.7991   -1256.9925   -17756.072      18.8088      18.8088      18.8088     74847.13 
    7900     253.0839   -1268.8536   -1256.9458   -16863.917      18.8088      18.8088      18.8088    69268.911 
    8000    253.80121   -1268.8402   -1256.8987    -15984.99      18.8088      18.8088      18.8088    62222.014 
Loop time of 1.14125 on 1 procs for 2000 steps with 365 atoms

Performance: 15.141 ns/day, 1.585 hours/ns, 1752.463 timesteps/s
100.0% CPU use with 1 MPI tasks x 1 OpenMP threads

MPI task timing breakdown:
Section |  min time  |  avg time  |  max time  |%varavg| %total
---------------------------------------------------------------
Pair    | 1.0847     | 1.0847     | 1.0847     |   0.0 | 95.04
Neigh   | 0.027528   | 0.027528   | 0.027528   |   0.0 |  2.41
Comm    | 0.0083434  | 0.0083434  | 0.0083434  |   0.0 |  0.73
Output  | 0.00023552 | 0.00023552 | 0.00023552 |   0.0 |  0.02
Modify  | 0.017614   | 0.017614   | 0.017614   |   0.0 |  1.54
Other   |            | 0.002856   |            |       |  0.25

Nlocal:    365 ave 365 max 365 min
Histogram: 1 0 0 0 0 0 0 0 0 0
Nghost:    1190 ave 1190 max 1190 min
Histogram: 1 0 0 0 0 0 0 0 0 0
Neighs:    13401 ave 13401 max 13401 min
Histogram: 1 0 0 0 0 0 0 0 0 0

Total # of neighbors = 13401
Ave neighs/atom = 36.7151
Neighbor list builds = 70
Dangerous builds = 0
next loopNum
jump SELF loop
if              "${variance} > 1000" then "run 2000" "next loopNum" "jump SELF loop" else "print 'continue'"
run 2000
Per MPI rank memory allocation (min/avg/max) = 2.988 | 2.988 | 2.988 Mbytes
Step Temp PotEng TotEng Press Lx Ly Lz v_variance 
    8000    253.80121   -1268.8402   -1256.8987    -15984.99      18.8088      18.8088      18.8088    62222.014 
    8100    251.37923    -1268.679   -1256.8514   -14903.217      18.8088      18.8088      18.8088    100402.56 
    8200    247.24158   -1268.4376   -1256.8047   -13685.319      18.8088      18.8088      18.8088     123007.7 
    8300    244.72641   -1268.2729   -1256.7584   -12617.452      18.8088      18.8088      18.8088    94238.175 
    8400    245.97072   -1268.2851   -1256.7121   -11675.508      18.8088      18.8088      18.8088    81211.163 
    8500    250.66343   -1268.4588   -1256.6649    -10941.66      18.8088      18.8088      18.8088    45495.616 
    8600    255.80928   -1268.6527   -1256.6167    -10141.71      18.8088      18.8088      18.8088    58450.837 
    8700    257.84955   -1268.6995   -1256.5675   -9368.8792      18.8088      18.8088      18.8088    57032.947 
    8800    255.02024   -1268.5172   -1256.5183   -8492.0264      18.8088      18.8088      18.8088    65713.136 
    8900     249.6736   -1268.2171   -1256.4698    -7726.076      18.8088      18.8088      18.8088    43582.845 
    9000    245.93963   -1267.9937   -1256.4221    -7145.206      18.8088      18.8088      18.8088    36126.738 
    9100     245.9229   -1267.9454   -1256.3746   -6783.3586      18.8088      18.8088      18.8088    10852.031 
    9200    247.93788   -1267.9924   -1256.3267   -6627.0271      18.8088      18.8088      18.8088    1261.7935 
    9300    248.80282   -1267.9848   -1256.2784    -6534.542      18.8088      18.8088      18.8088     1695.387 
    9400    247.45528    -1267.873     -1256.23   -6584.4368      18.8088      18.8088      18.8088    285.92715 
    9500    246.11937    -1267.762   -1256.1819   -6525.2151      18.8088      18.8088      18.8088    880.06895 
    9600     248.0041   -1267.8023   -1256.1336   -6677.0777      18.8088      18.8088      18.8088    1447.4402 
    9700    253.58538   -1268.0157   -1256.0844   -6994.8961      18.8088      18.8088      18.8088    9751.5536 
    9800    259.37734   -1268.2378   -1256.0339   -7425.5574      18.8088      18.8088      18.8088    15731.305 
    9900    261.51118   -1268.2867   -1255.9825   -7753.8017      18.8088      18.8088      18.8088    9601.4437 
   10000     260.4709   -1268.1862   -1255.9309   -7900.5179      18.8088      18.8088      18.8088     1174.626 
Loop time of 1.15289 on 1 procs for 2000 steps with 365 atoms

Performance: 14.988 ns/day, 1.601 hours/ns, 1734.778 timesteps/s
100.0% CPU use with 1 MPI tasks x 1 OpenMP threads

MPI task timing breakdown:
Section |  min time  |  avg time  |  max time  |%varavg| %total
---------------------------------------------------------------
Pair    | 1.101      | 1.101      | 1.101      |   0.0 | 95.50
Neigh   | 0.023303   | 0.023303   | 0.023303   |   0.0 |  2.02
Comm    | 0.0080223  | 0.0080223  | 0.0080223  |   0.0 |  0.70
Output  | 0.00023606 | 0.00023606 | 0.00023606 |   0.0 |  0.02
Modify  | 0.017404   | 0.017404   | 0.017404   |   0.0 |  1.51
Other   |            | 0.002883   |            |       |  0.25

Nlocal:    365 ave 365 max 365 min
Histogram: 1 0 0 0 0 0 0 0 0 0
Nghost:    1178 ave 1178 max 1178 min
Histogram: 1 0 0 0 0 0 0 0 0 0
Neighs:    13487 ave 13487 max 13487 min
Histogram: 1 0 0 0 0 0 0 0 0 0

Total # of neighbors = 13487
Ave neighs/atom = 36.9507
Neighbor list builds = 61
Dangerous builds = 0
next loopNum
jump SELF loop
if              "${variance} > 1000" then "run 2000" "next loopNum" "jump SELF loop" else "print 'continue'"
run 2000
Per MPI rank memory allocation (min/avg/max) = 2.988 | 2.988 | 2.988 Mbytes
Step Temp PotEng TotEng Press Lx Ly Lz v_variance 
   10000     260.4709   -1268.1862   -1255.9309   -7900.5179      18.8088      18.8088      18.8088     1174.626 
   10100    260.26357    -1268.125   -1255.8794   -8128.1416      18.8088      18.8088      18.8088    3431.6942 
   10200    264.14208   -1268.2556   -1255.8276   -8607.5964      18.8088      18.8088      18.8088    18286.731 
   10300    271.56525   -1268.5518   -1255.7744   -9219.8491      18.8088      18.8088      18.8088    34268.548 
   10400    279.22619   -1268.8575   -1255.7197     -10056.3      18.8088      18.8088      18.8088    55243.171 
   10500    283.48358   -1269.0018   -1255.6637   -11026.608      18.8088      18.8088      18.8088    82280.591 
   10600    282.66275   -1268.9067   -1255.6072   -11860.324      18.8088      18.8088      18.8088     61492.87 
   10700    277.68715   -1268.6167   -1255.5513   -12533.948      18.8088      18.8088      18.8088     39515.67 
   10800    270.88199   -1268.2417   -1255.4965   -13159.142      18.8088      18.8088      18.8088    31195.504 
   10900    263.65256   -1267.8481   -1255.4431   -13669.348      18.8088      18.8088      18.8088    28521.716 
   11000    256.91288   -1267.4789   -1255.3909    -13894.56      18.8088      18.8088      18.8088    4227.5116 
   11100    253.63761   -1267.2736   -1255.3398   -14165.983      18.8088      18.8088      18.8088    8203.5506 
   11200    258.05672   -1267.4301   -1255.2884   -14466.882      18.8088      18.8088      18.8088    9788.5146 
   11300    270.47988   -1267.9614   -1255.2351   -14908.338      18.8088      18.8088      18.8088    16652.618 
   11400    285.04502   -1268.5905    -1255.179   -15442.941      18.8088      18.8088      18.8088     23183.49 
   11500      294.292   -1268.9668   -1255.1202   -15384.942      18.8088      18.8088      18.8088    1200.0051 
   11600     296.3612   -1269.0043   -1255.0603   -15416.997      18.8088      18.8088      18.8088    3854.8497 
   11700    296.17032   -1268.9352   -1255.0002   -15148.797      18.8088      18.8088      18.8088    8709.2374 
   11800    299.69596   -1269.0407   -1254.9398   -15105.261      18.8088      18.8088      18.8088    2048.9107 
   11900    307.91717   -1269.3659   -1254.8782   -15221.704      18.8088      18.8088      18.8088    507.01934 
   12000    317.30821   -1269.7442   -1254.8146   -15412.061      18.8088      18.8088      18.8088     3971.777 
Loop time of 1.14464 on 1 procs for 2000 steps with 365 atoms

Performance: 15.096 ns/day, 1.590 hours/ns, 1747.278 timesteps/s
100.0% CPU use with 1 MPI tasks x 1 OpenMP threads

MPI task timing breakdown:
Section |  min time  |  avg time  |  max time  |%varavg| %total
---------------------------------------------------------------
Pair    | 1.0933     | 1.0933     | 1.0933     |   0.0 | 95.52
Neigh   | 0.022545   | 0.022545   | 0.022545   |   0.0 |  1.97
Comm    | 0.0082055  | 0.0082055  | 0.0082055  |   0.0 |  0.72
Output  | 0.00025978 | 0.00025978 | 0.00025978 |   0.0 |  0.02
Modify  | 0.017441   | 0.017441   | 0.017441   |   0.0 |  1.52
Other   |            | 0.002875   |            |       |  0.25

Nlocal:    365 ave 365 max 365 min
Histogram: 1 0 0 0 0 0 0 0 0 0
Nghost:    1206 ave 1206 max 1206 min
Histogram: 1 0 0 0 0 0 0 0 0 0
Neighs:    13371 ave 13371 max 13371 min
Histogram: 1 0 0 0 0 0 0 0 0 0

Total # of neighbors = 13371
Ave neighs/atom = 36.6329
Neighbor list builds = 59
Dangerous builds = 0
next loopNum
jump SELF loop
if              "${variance} > 1000" then "run 2000" "next loopNum" "jump SELF loop" else "print 'continue'"
run 2000
Per MPI rank memory allocation (min/avg/max) = 2.988 | 2.988 | 2.988 Mbytes
Step Temp PotEng TotEng Press Lx Ly Lz v_variance 
   12000    317.30821   -1269.7442   -1254.8146   -15412.061      18.8088      18.8088      18.8088     3971.777 
   12100    323.24817   -1269.9585   -1254.7494   -15554.345      18.8088      18.8088      18.8088    1461.6267 
   12200    323.57477    -1269.908   -1254.6836   -15623.822      18.8088      18.8088      18.8088    858.46548 
   12300     320.3642   -1269.6915   -1254.6182   -15559.943      18.8088      18.8088      18.8088    2071.0218 
   12400    318.91593   -1269.5585   -1254.5532   -15418.072      18.8088      18.8088      18.8088    3720.0389 
   12500    323.08554   -1269.6894    -1254.488   -15632.331      18.8088      18.8088      18.8088    3103.5364 
   12600    331.06834   -1269.9985   -1254.4215   -15543.683      18.8088      18.8088      18.8088     686.4118 
   12700    336.88656   -1270.2042   -1254.3534   -15455.711      18.8088      18.8088      18.8088     3730.381 
   12800    336.18498   -1270.1025   -1254.2848   -14926.715      18.8088      18.8088      18.8088    25403.856 
   12900    329.22789   -1269.7074    -1254.217   -14068.154      18.8088      18.8088      18.8088    58121.893 
   13000    318.38692   -1269.1313   -1254.1509   -12917.893      18.8088      18.8088      18.8088    108592.74 
   13100    307.55065   -1268.5576   -1254.0871   -11480.328      18.8088      18.8088      18.8088    173394.66 
   13200    300.62286   -1268.1695    -1254.025   -10201.322      18.8088      18.8088      18.8088    136732.99 
   13300    300.24523   -1268.0903   -1253.9636   -9053.9317      18.8088      18.8088      18.8088    101916.79 
   13400    306.36055   -1268.3159   -1253.9014   -8118.6795      18.8088      18.8088      18.8088    69554.797 
   13500    315.38729   -1268.6766   -1253.8374    -7093.861      18.8088      18.8088      18.8088    82451.284 
   13600    321.75143   -1268.9103   -1253.7717   -6266.5605      18.8088      18.8088      18.8088     59307.24 
   13700    322.01107   -1268.8559   -1253.7051   -5348.0605      18.8088      18.8088      18.8088    82860.379 
   13800    317.34085   -1268.5701    -1253.639   -4459.2082      18.8088      18.8088      18.8088    60967.664 
   13900    313.23226   -1268.3116   -1253.5738   -3645.7017      18.8088      18.8088      18.8088    53448.063 
   14000    314.67677   -1268.3146   -1253.5088   -3144.5413      18.8088      18.8088      18.8088    19886.685 
Loop time of 1.1606 on 1 procs for 2000 steps with 365 atoms

Performance: 14.889 ns/day, 1.612 hours/ns, 1723.242 timesteps/s
100.0% CPU use with 1 MPI tasks x 1 OpenMP threads

MPI task timing breakdown:
Section |  min time  |  avg time  |  max time  |%varavg| %total
---------------------------------------------------------------
Pair    | 1.1057     | 1.1057     | 1.1057     |   0.0 | 95.27
Neigh   | 0.025625   | 0.025625   | 0.025625   |   0.0 |  2.21
Comm    | 0.0083088  | 0.0083088  | 0.0083088  |   0.0 |  0.72
Output  | 0.00024839 | 0.00024839 | 0.00024839 |   0.0 |  0.02
Modify  | 0.017721   | 0.017721   | 0.017721   |   0.0 |  1.53
Other   |            | 0.002962   |            |       |  0.26

Nlocal:    365 ave 365 max 365 min
Histogram: 1 0 0 0 0 0 0 0 0 0
Nghost:    1182 ave 1182 max 1182 min
Histogram: 1 0 0 0 0 0 0 0 0 0
Neighs:    13493 ave 13493 max 13493 min
Histogram: 1 0 0 0 0 0 0 0 0 0

Total # of neighbors = 13493
Ave neighs/atom = 36.9671
Neighbor list builds = 65
Dangerous builds = 0
next loopNum
jump SELF loop
if              "${variance} > 1000" then "run 2000" "next loopNum" "jump SELF loop" else "print 'continue'"
run 2000
Per MPI rank memory allocation (min/avg/max) = 2.988 | 2.988 | 2.988 Mbytes
Step Temp PotEng TotEng Press Lx Ly Lz v_variance 
   14000    314.67677   -1268.3146   -1253.5088   -3144.5413      18.8088      18.8088      18.8088    19886.685 
   14100    321.87979   -1268.5875   -1253.4428    -2994.644      18.8088      18.8088      18.8088    2294.4391 
   14200    331.38029   -1268.9666   -1253.3749   -3184.5357      18.8088      18.8088      18.8088    6352.7449 
   14300    338.70287   -1269.2413   -1253.3051   -3596.3398      18.8088      18.8088      18.8088    13630.383 
   14400    341.11864   -1269.2841   -1253.2342   -3819.9856      18.8088      18.8088      18.8088    6250.1107 
   14500    338.22343    -1269.077   -1253.1634    -4203.271      18.8088      18.8088      18.8088    9781.0461 
   14600    332.88456   -1268.7558   -1253.0934   -4347.3268      18.8088      18.8088      18.8088     1875.932 
   14700    329.54887   -1268.5298   -1253.0243   -4761.9838      18.8088      18.8088      18.8088    10995.134 
   14800     331.1758   -1268.5374   -1252.9554   -5298.7593      18.8088      18.8088      18.8088    26244.973 
   14900    337.41388   -1268.7611   -1252.8855   -5933.5542      18.8088      18.8088      18.8088    37757.584 
   15000    344.34201   -1269.0156   -1252.8141   -6541.7444      18.8088      18.8088      18.8088     29972.61 
   15100    346.71059   -1269.0545   -1252.7415    -7221.076      18.8088      18.8088      18.8088    42452.964 
   15200    341.59704   -1268.7416   -1252.6693   -7535.8332      18.8088      18.8088      18.8088    5940.5305 
   15300    330.54725   -1268.1511   -1252.5986   -7791.7835      18.8088      18.8088      18.8088    8512.6207 
   15400    318.09771   -1267.4972   -1252.5305   -7962.5366      18.8088      18.8088      18.8088    2289.3013 
   15500    310.21345   -1267.0603   -1252.4645   -8337.7813      18.8088      18.8088      18.8088    10981.341 
   15600    311.04485    -1267.034   -1252.3991   -9076.5267      18.8088      18.8088      18.8088    53794.228 
   15700    319.19231   -1267.3508   -1252.3326   -10087.371      18.8088      18.8088      18.8088    95281.818 
   15800    328.51778   -1267.7209    -1252.264   -11093.778      18.8088      18.8088      18.8088    89836.178 
   15900    334.10201   -1267.9134   -1252.1936   -12236.981      18.8088      18.8088      18.8088     98354.97 
   16000    335.21211   -1267.8944   -1252.1224   -13241.863      18.8088      18.8088      18.8088    85214.926 
Loop time of 1.14948 on 1 procs for 2000 steps with 365 atoms

Performance: 15.033 ns/day, 1.596 hours/ns, 1739.917 timesteps/s
100.0% CPU use with 1 MPI tasks x 1 OpenMP threads

MPI task timing breakdown:
Section |  min time  |  avg time  |  max time  |%varavg| %total
---------------------------------------------------------------
Pair    | 1.0948     | 1.0948     | 1.0948     |   0.0 | 95.24
Neigh   | 0.025919   | 0.025919   | 0.025919   |   0.0 |  2.25
Comm    | 0.0082543  | 0.0082543  | 0.0082543  |   0.0 |  0.72
Output  | 0.00024223 | 0.00024223 | 0.00024223 |   0.0 |  0.02
Modify  | 0.017418   | 0.017418   | 0.017418   |   0.0 |  1.52
Other   |            | 0.002843   |            |       |  0.25

Nlocal:    365 ave 365 max 365 min
Histogram: 1 0 0 0 0 0 0 0 0 0
Nghost:    1206 ave 1206 max 1206 min
Histogram: 1 0 0 0 0 0 0 0 0 0
Neighs:    13320 ave 13320 max 13320 min
Histogram: 1 0 0 0 0 0 0 0 0 0

Total # of neighbors = 13320
Ave neighs/atom = 36.4932
Neighbor list builds = 67
Dangerous builds = 0
next loopNum
jump SELF loop
if              "${variance} > 1000" then "run 2000" "next loopNum" "jump SELF loop" else "print 'continue'"
run 2000
Per MPI rank memory allocation (min/avg/max) = 2.988 | 2.988 | 2.988 Mbytes
Step Temp PotEng TotEng Press Lx Ly Lz v_variance 
   16000    335.21211   -1267.8944   -1252.1224   -13241.863      18.8088      18.8088      18.8088    85214.926 
   16100    333.39587   -1267.7378   -1252.0513   -13854.436      18.8088      18.8088      18.8088    36729.296 
   16200    331.00225   -1267.5545   -1251.9807   -14601.717      18.8088      18.8088      18.8088    38772.507 
   16300    331.25262   -1267.4959   -1251.9102    -15223.14      18.8088      18.8088      18.8088     28510.87 
   16400    336.38189   -1267.6661   -1251.8391   -16038.491      18.8088      18.8088      18.8088    65542.899 
   16500    345.49393   -1268.0221   -1251.7663   -16956.178      18.8088      18.8088      18.8088     77511.16 
   16600    353.61516   -1268.3294   -1251.6916   -17728.974      18.8088      18.8088      18.8088    63834.342 
   16700    355.35114   -1268.3352   -1251.6157   -18263.873      18.8088      18.8088      18.8088    33324.016 
   16800    350.40293   -1268.0269   -1251.5402   -18265.859      18.8088      18.8088      18.8088    55.841337 
   16900    343.79522   -1267.6418    -1251.466   -18244.221      18.8088      18.8088      18.8088    1023.5396 
   17000    341.72018   -1267.4709   -1251.3927   -18245.684      18.8088      18.8088      18.8088    1221.8766 
   17100    348.13493    -1267.699    -1251.319   -18258.672      18.8088      18.8088      18.8088    1127.2917 
   17200    360.93177   -1268.2252   -1251.2431   -18348.498      18.8088      18.8088      18.8088    794.13415 
   17300    371.22221   -1268.6307   -1251.1645   -18193.977      18.8088      18.8088      18.8088    1545.7668 
   17400    369.45144   -1268.4677   -1251.0848   -17633.263      18.8088      18.8088      18.8088    26752.362 
   17500    354.55793   -1267.6892    -1251.007   -16706.008      18.8088      18.8088      18.8088    75447.492 
   17600    337.00393   -1266.7892   -1250.9329   -15628.378      18.8088      18.8088      18.8088     98688.49 
   17700    329.28118   -1266.3545   -1250.8616   -14925.322      18.8088      18.8088      18.8088    40397.977 
   17800    333.27464   -1266.4713   -1250.7905   -14457.344      18.8088      18.8088      18.8088     17255.46 
   17900    339.47244   -1266.6904   -1250.7179   -14325.855      18.8088      18.8088      18.8088    3833.5627 
   18000    340.10402   -1266.6466   -1250.6445   -13958.493      18.8088      18.8088      18.8088    11534.781 
Loop time of 1.14061 on 1 procs for 2000 steps with 365 atoms

Performance: 15.150 ns/day, 1.584 hours/ns, 1753.452 timesteps/s
100.0% CPU use with 1 MPI tasks x 1 OpenMP threads

MPI task timing breakdown:
Section |  min time  |  avg time  |  max time  |%varavg| %total
---------------------------------------------------------------
Pair    | 1.0839     | 1.0839     | 1.0839     |   0.0 | 95.03
Neigh   | 0.027777   | 0.027777   | 0.027777   |   0.0 |  2.44
Comm    | 0.0083441  | 0.0083441  | 0.0083441  |   0.0 |  0.73
Output  | 0.0002393  | 0.0002393  | 0.0002393  |   0.0 |  0.02
Modify  | 0.017476   | 0.017476   | 0.017476   |   0.0 |  1.53
Other   |            | 0.002861   |            |       |  0.25

Nlocal:    365 ave 365 max 365 min
Histogram: 1 0 0 0 0 0 0 0 0 0
Nghost:    1208 ave 1208 max 1208 min
Histogram: 1 0 0 0 0 0 0 0 0 0
Neighs:    13261 ave 13261 max 13261 min
Histogram: 1 0 0 0 0 0 0 0 0 0

Total # of neighbors = 13261
Ave neighs/atom = 36.3315
Neighbor list builds = 71
Dangerous builds = 0
next loopNum
jump SELF loop
if              "${variance} > 1000" then "run 2000" "next loopNum" "jump SELF loop" else "print 'continue'"
run 2000
Per MPI rank memory allocation (min/avg/max) = 2.988 | 2.988 | 2.988 Mbytes
Step Temp PotEng TotEng Press Lx Ly Lz v_variance 
   18000    340.10402   -1266.6466   -1250.6445   -13958.493      18.8088      18.8088      18.8088    11534.781 
   18100     339.0842   -1266.5253   -1250.5712   -13506.669      18.8088      18.8088      18.8088    18804.532 
   18200    345.61818   -1266.7589   -1250.4973   -13172.686      18.8088      18.8088      18.8088     9216.908 
   18300    359.38831   -1267.3305    -1250.421   -13093.508      18.8088      18.8088      18.8088    998.52487 
   18400     370.1491   -1267.7576   -1250.3418   -12778.304      18.8088      18.8088      18.8088    8386.6115 
   18500    372.29967   -1267.7781   -1250.2612   -12157.316      18.8088      18.8088      18.8088    27661.293 
   18600    371.17684   -1267.6448   -1250.1806   -11687.084      18.8088      18.8088      18.8088    22245.219 
   18700    374.07574   -1267.7005      -1250.1   -11057.439      18.8088      18.8088      18.8088    26650.602 
   18800    378.77224   -1267.8398   -1250.0183   -10390.478      18.8088      18.8088      18.8088    35697.302 
   18900    377.22813   -1267.6851   -1249.9363   -9618.3448      18.8088      18.8088      18.8088    49799.143 
   19000    369.32505   -1267.2324   -1249.8554   -8870.5013      18.8088      18.8088      18.8088    44338.016 
   19100    363.05844   -1266.8582   -1249.7761   -7990.5323      18.8088      18.8088      18.8088    58351.979 
   19200    363.63294   -1266.8065   -1249.6974   -7302.9979      18.8088      18.8088      18.8088    37008.298 
   19300    368.81049   -1266.9707   -1249.6179   -6903.1607      18.8088      18.8088      18.8088    12811.097 
   19400    373.86546   -1267.1278   -1249.5372   -6644.7041      18.8088      18.8088      18.8088    4826.0244 
   19500    376.21792   -1267.1569   -1249.4556   -6540.2513      18.8088      18.8088      18.8088    3112.9757 
   19600    376.60235   -1267.0932   -1249.3738   -6493.4907      18.8088      18.8088      18.8088      547.051 
   19700    374.85116   -1266.9291   -1249.2921   -6539.9714      18.8088      18.8088      18.8088    874.13186 
   19800    370.30601   -1266.6341    -1249.211   -6654.0208      18.8088      18.8088      18.8088    997.18494 
   19900    366.44722   -1266.3724   -1249.1308   -7095.6841      18.8088      18.8088      18.8088    18883.129 
   20000    368.16876   -1266.3735   -1249.0509   -7791.5667      18.8088      18.8088      18.8088    31920.633 
Loop time of 1.14351 on 1 procs for 2000 steps with 365 atoms

Performance: 15.111 ns/day, 1.588 hours/ns, 1749.001 timesteps/s
100.0% CPU use with 1 MPI tasks x 1 OpenMP threads

MPI task timing breakdown:
Section |  min time  |  avg time  |  max time  |%varavg| %total
---------------------------------------------------------------
Pair    | 1.0885     | 1.0885     | 1.0885     |   0.0 | 95.19
Neigh   | 0.026195   | 0.026195   | 0.026195   |   0.0 |  2.29
Comm    | 0.0084724  | 0.0084724  | 0.0084724  |   0.0 |  0.74
Output  | 0.00021966 | 0.00021966 | 0.00021966 |   0.0 |  0.02
Modify  | 0.017332   | 0.017332   | 0.017332   |   0.0 |  1.52
Other   |            | 0.002837   |            |       |  0.25

Nlocal:    365 ave 365 max 365 min
Histogram: 1 0 0 0 0 0 0 0 0 0
Nghost:    1237 ave 1237 max 1237 min
Histogram: 1 0 0 0 0 0 0 0 0 0
Neighs:    13373 ave 13373 max 13373 min
Histogram: 1 0 0 0 0 0 0 0 0 0

Total # of neighbors = 13373
Ave neighs/atom = 36.6384
Neighbor list builds = 67
Dangerous builds = 0
next loopNum
jump SELF loop
if              "${variance} > 1000" then "run 2000" "next loopNum" "jump SELF loop" else "print 'continue'"
run 2000
Per MPI rank memory allocation (min/avg/max) = 2.988 | 2.988 | 2.988 Mbytes
Step Temp PotEng TotEng Press Lx Ly Lz v_variance 
   20000    368.16876   -1266.3735   -1249.0509   -7791.5667      18.8088      18.8088      18.8088    31920.633 
   20100     375.0888   -1266.6181   -1248.9699   -8697.6855      18.8088      18.8088      18.8088    82462.212 
   20200    381.71881   -1266.8474   -1248.8873   -9606.1123      18.8088      18.8088      18.8088    74303.708 
   20300    384.13824   -1266.8776   -1248.8036   -10455.171      18.8088      18.8088      18.8088    60886.704 
   20400    384.28729   -1266.8007   -1248.7197   -11373.655      18.8088      18.8088      18.8088    73401.493 
   20500    386.15803   -1266.8046   -1248.6356   -12187.381      18.8088      18.8088      18.8088     63275.54 
   20600     390.6205   -1266.9298   -1248.5508   -12954.979      18.8088      18.8088      18.8088    61097.755 
   20700    395.01356   -1267.0506    -1248.465   -13637.422      18.8088      18.8088      18.8088    41003.683 
   20800    396.48268   -1267.0333   -1248.3785   -14156.958      18.8088      18.8088      18.8088    17834.052 
   20900    394.62833   -1266.8596    -1248.292   -14319.477      18.8088      18.8088      18.8088    2530.7917 
   21000    392.40555   -1266.6691   -1248.2061   -14540.015      18.8088      18.8088      18.8088    5749.9612 
   21100    393.17582   -1266.6195   -1248.1203   -14601.769      18.8088      18.8088      18.8088    1408.5548 
   21200       395.66   -1266.6502   -1248.0341   -14540.993      18.8088      18.8088      18.8088    545.57143 
   21300    394.05272   -1266.4881   -1247.9477    -14513.22      18.8088      18.8088      18.8088    1078.2628 
   21400    385.04115   -1265.9788   -1247.8624   -13984.821      18.8088      18.8088      18.8088     18902.04 
   21500    374.28905   -1265.3899   -1247.7794    -13373.82      18.8088      18.8088      18.8088    34944.476 
   21600    372.67328   -1265.2323   -1247.6977   -13155.665      18.8088      18.8088      18.8088    3660.7559 
   21700    382.53316   -1265.6135   -1247.6151   -13132.294      18.8088      18.8088      18.8088    468.59311 
   21800    394.54071   -1266.0931   -1247.5297     -13479.5      18.8088      18.8088      18.8088     9092.702 
   21900    399.12075   -1266.2213   -1247.4424   -13527.333      18.8088      18.8088      18.8088    3471.3732 
   22000    396.21935   -1265.9973   -1247.3549   -13597.935      18.8088      18.8088      18.8088    1442.6024 
Loop time of 1.14019 on 1 procs for 2000 steps with 365 atoms

Performance: 15.155 ns/day, 1.584 hours/ns, 1754.096 timesteps/s
100.0% CPU use with 1 MPI tasks x 1 OpenMP threads

MPI task timing breakdown:
Section |  min time  |  avg time  |  max time  |%varavg| %total
---------------------------------------------------------------
Pair    | 1.0841     | 1.0841     | 1.0841     |   0.0 | 95.08
Neigh   | 0.027005   | 0.027005   | 0.027005   |   0.0 |  2.37
Comm    | 0.008481   | 0.008481   | 0.008481   |   0.0 |  0.74
Output  | 0.00022238 | 0.00022238 | 0.00022238 |   0.0 |  0.02
Modify  | 0.017527   | 0.017527   | 0.017527   |   0.0 |  1.54
Other   |            | 0.002884   |            |       |  0.25

Nlocal:    365 ave 365 max 365 min
Histogram: 1 0 0 0 0 0 0 0 0 0
Nghost:    1202 ave 1202 max 1202 min
Histogram: 1 0 0 0 0 0 0 0 0 0
Neighs:    13227 ave 13227 max 13227 min
Histogram: 1 0 0 0 0 0 0 0 0 0

Total # of neighbors = 13227
Ave neighs/atom = 36.2384
Neighbor list builds = 70
Dangerous builds = 0
next loopNum
jump SELF loop
if              "${variance} > 1000" then "run 2000" "next loopNum" "jump SELF loop" else "print 'continue'"
run 2000
Per MPI rank memory allocation (min/avg/max) = 2.988 | 2.988 | 2.988 Mbytes
Step Temp PotEng TotEng Press Lx Ly Lz v_variance 
   22000    396.21935   -1265.9973   -1247.3549   -13597.935      18.8088      18.8088      18.8088    1442.6024 
   22100    392.66164   -1265.7432   -1247.2682   -13561.609      18.8088      18.8088      18.8088    541.99253 
   22200    394.48138   -1265.7424   -1247.1818   -13819.408      18.8088      18.8088      18.8088    5592.1687 
   22300    400.35121   -1265.9312   -1247.0944   -14035.984      18.8088      18.8088      18.8088    6833.3087 
   22400    404.35956   -1266.0312   -1247.0058   -14388.943      18.8088      18.8088      18.8088    9846.6371 
   22500    405.01196   -1265.9727   -1246.9166   -14354.233      18.8088      18.8088      18.8088    239.54054 
   22600    406.74197   -1265.9649   -1246.8274   -14281.257      18.8088      18.8088      18.8088    879.20865 
   22700      412.077   -1266.1258   -1246.7373   -14232.274      18.8088      18.8088      18.8088    805.29679 
   22800    418.30027   -1266.3272   -1246.6459   -13678.515      18.8088      18.8088      18.8088    25606.083 
   22900    421.42306   -1266.3816   -1246.5534   -12849.779      18.8088      18.8088      18.8088    55064.505 
   23000    420.20027   -1266.2315   -1246.4607   -11665.033      18.8088      18.8088      18.8088    111121.63 
   23100    416.91523   -1265.9848   -1246.3687   -10398.355      18.8088      18.8088      18.8088    120856.45 
   23200    414.43026   -1265.7765   -1246.2773   -9101.1522      18.8088      18.8088      18.8088    131627.44 
   23300    414.41966   -1265.6849   -1246.1862   -7734.8596      18.8088      18.8088      18.8088    159222.58 
   23400    416.87712   -1265.7091   -1246.0948   -6529.0386      18.8088      18.8088      18.8088    119557.63 
   23500    419.55634   -1265.7432   -1246.0027   -5377.9209      18.8088      18.8088      18.8088       121809 
   23600    420.98896   -1265.7181   -1245.9102   -4144.4969      18.8088      18.8088      18.8088    104250.22 
   23700    422.40782    -1265.692   -1245.8175   -3441.4154      18.8088      18.8088      18.8088    44071.247 
   23800    421.69687   -1265.5656   -1245.7245   -2626.9594      18.8088      18.8088      18.8088    55712.603 
   23900    414.52216   -1265.1359   -1245.6323   -1970.5519      18.8088      18.8088      18.8088    33210.216 
   24000    405.03727   -1264.5995   -1245.5422   -1446.0016      18.8088      18.8088      18.8088    22315.482 
Loop time of 1.14706 on 1 procs for 2000 steps with 365 atoms

Performance: 15.065 ns/day, 1.593 hours/ns, 1743.585 timesteps/s
100.0% CPU use with 1 MPI tasks x 1 OpenMP threads

MPI task timing breakdown:
Section |  min time  |  avg time  |  max time  |%varavg| %total
---------------------------------------------------------------
Pair    | 1.0879     | 1.0879     | 1.0879     |   0.0 | 94.84
Neigh   | 0.030044   | 0.030044   | 0.030044   |   0.0 |  2.62
Comm    | 0.0084569  | 0.0084569  | 0.0084569  |   0.0 |  0.74
Output  | 0.00022193 | 0.00022193 | 0.00022193 |   0.0 |  0.02
Modify  | 0.017613   | 0.017613   | 0.017613   |   0.0 |  1.54
Other   |            | 0.002866   |            |       |  0.25

Nlocal:    365 ave 365 max 365 min
Histogram: 1 0 0 0 0 0 0 0 0 0
Nghost:    1186 ave 1186 max 1186 min
Histogram: 1 0 0 0 0 0 0 0 0 0
Neighs:    13363 ave 13363 max 13363 min
Histogram: 1 0 0 0 0 0 0 0 0 0

Total # of neighbors = 13363
Ave neighs/atom = 36.611
Neighbor list builds = 76
Dangerous builds = 0
next loopNum
jump SELF loop
if              "${variance} > 1000" then "run 2000" "next loopNum" "jump SELF loop" else "print 'continue'"
run 2000
Per MPI rank memory allocation (min/avg/max) = 2.988 | 2.988 | 2.988 Mbytes
Step Temp PotEng TotEng Press Lx Ly Lz v_variance 
   24000    405.03727   -1264.5995   -1245.5422   -1446.0016      18.8088      18.8088      18.8088    22315.482 
   24100    403.34635    -1264.431   -1245.4533   -1219.6428      18.8088      18.8088      18.8088    2974.1702 
   24200    409.08186   -1264.6114   -1245.3638   -1256.2749      18.8088      18.8088      18.8088    657.71282 
   24300    416.14359   -1264.8525   -1245.2727   -1568.1238      18.8088      18.8088      18.8088    11090.168 
   24400    424.79263   -1265.1667   -1245.1799   -1826.7175      18.8088      18.8088      18.8088    7191.5746 
   24500    436.47447   -1265.6213   -1245.0848   -2126.7684      18.8088      18.8088      18.8088    11375.467 
   24600    446.56025   -1265.9982   -1244.9872   -2415.1402      18.8088      18.8088      18.8088    6106.2888 
   24700    449.39435   -1266.0326   -1244.8883   -2429.0168      18.8088      18.8088      18.8088     1833.675 
   24800    444.15872   -1265.6876   -1244.7896   -2482.9484      18.8088      18.8088      18.8088     687.0711 
   24900    434.80953   -1265.1508   -1244.6927   -2456.5108      18.8088      18.8088      18.8088    567.05931 
   25000     426.9478   -1264.6861   -1244.5979   -2629.9321      18.8088      18.8088      18.8088    3458.3172 
   25100    423.93554   -1264.4507   -1244.5042   -2969.3261      18.8088      18.8088      18.8088    9501.9639 
   25200    425.40045    -1264.426   -1244.4106   -3623.0029      18.8088      18.8088      18.8088    43967.043 
   25300    429.09915   -1264.5058   -1244.3164    -4522.647      18.8088      18.8088      18.8088    65811.609 
   25400    433.35764    -1264.611   -1244.2212   -5649.2067      18.8088      18.8088      18.8088    120799.67 
   25500    436.96136   -1264.6844   -1244.1251   -6950.6588      18.8088      18.8088      18.8088    160580.85 
   25600    438.94407    -1264.681   -1244.0284    -8444.912      18.8088      18.8088      18.8088    206028.07 
   25700    440.70194   -1264.6666   -1243.9313   -9939.8674      18.8088      18.8088      18.8088     180024.6 
   25800    443.48273   -1264.6998   -1243.8336    -11367.92      18.8088      18.8088      18.8088     158004.4 
   25900    442.44167   -1264.5529   -1243.7357   -12472.788      18.8088      18.8088      18.8088    100056.93 
   26000    432.99163   -1264.0114   -1243.6389   -13152.963      18.8088      18.8088      18.8088    34287.773 
Loop time of 1.15286 on 1 procs for 2000 steps with 365 atoms

Performance: 14.989 ns/day, 1.601 hours/ns, 1734.819 timesteps/s
100.0% CPU use with 1 MPI tasks x 1 OpenMP threads

MPI task timing breakdown:
Section |  min time  |  avg time  |  max time  |%varavg| %total
---------------------------------------------------------------
Pair    | 1.0956     | 1.0956     | 1.0956     |   0.0 | 95.03
Neigh   | 0.02828    | 0.02828    | 0.02828    |   0.0 |  2.45
Comm    | 0.0083851  | 0.0083851  | 0.0083851  |   0.0 |  0.73
Output  | 0.00022174 | 0.00022174 | 0.00022174 |   0.0 |  0.02
Modify  | 0.017518   | 0.017518   | 0.017518   |   0.0 |  1.52
Other   |            | 0.002854   |            |       |  0.25

Nlocal:    365 ave 365 max 365 min
Histogram: 1 0 0 0 0 0 0 0 0 0
Nghost:    1195 ave 1195 max 1195 min
Histogram: 1 0 0 0 0 0 0 0 0 0
Neighs:    13254 ave 13254 max 13254 min
Histogram: 1 0 0 0 0 0 0 0 0 0

Total # of neighbors = 13254
Ave neighs/atom = 36.3123
Neighbor list builds = 73
Dangerous builds = 0
next loopNum
jump SELF loop
if              "${variance} > 1000" then "run 2000" "next loopNum" "jump SELF loop" else "print 'continue'"
run 2000
Per MPI rank memory allocation (min/avg/max) = 2.988 | 2.988 | 2.988 Mbytes
Step Temp PotEng TotEng Press Lx Ly Lz v_variance 
   26000    432.99163   -1264.0114   -1243.6389   -13152.963      18.8088      18.8088      18.8088    34287.773 
   26100    421.68089    -1263.385   -1243.5446   -13631.752      18.8088      18.8088      18.8088    21483.879 
   26200    420.55581   -1263.2392   -1243.4517   -14351.844      18.8088      18.8088      18.8088    42403.452 
   26300    432.43593   -1263.7039   -1243.3575    -15344.55      18.8088      18.8088      18.8088    82596.482 
   26400    447.01223   -1264.2923   -1243.2601       -16239      18.8088      18.8088      18.8088    57562.231 
   26500    449.42586   -1264.3063   -1243.1605   -16623.138      18.8088      18.8088      18.8088    19302.596 
   26600    435.08651   -1263.5334   -1243.0623    -16477.65      18.8088      18.8088      18.8088    1304.5482 
   26700    414.71429   -1262.4808   -1242.9682   -15925.394      18.8088      18.8088      18.8088    26219.338 
   26800    404.43621   -1261.9067   -1242.8777   -15682.393      18.8088      18.8088      18.8088    7690.5773 
   26900    412.90327   -1262.2146   -1242.7872   -16016.149      18.8088      18.8088      18.8088    11307.937 
   27000    436.04252   -1263.2091    -1242.693   -16621.963      18.8088      18.8088      18.8088    24745.491 
   27100    460.51435   -1264.2606   -1242.5931   -17264.845      18.8088      18.8088      18.8088    28179.607 
   27200    472.04614   -1264.6992   -1242.4891   -17275.343      18.8088      18.8088      18.8088    1456.2936 
   27300    466.45084   -1264.3314   -1242.3846   -16759.929      18.8088      18.8088      18.8088    27938.531 
   27400     452.2065   -1263.5591   -1242.2825   -15942.131      18.8088      18.8088      18.8088    64941.124 
   27500    441.70554    -1262.966   -1242.1834    -15500.21      18.8088      18.8088      18.8088    20948.258 
   27600    441.33752   -1262.8508   -1242.0856   -15185.128      18.8088      18.8088      18.8088    9146.0372 
   27700    449.70791   -1263.1458   -1241.9867   -15276.987      18.8088      18.8088      18.8088    684.83943 
   27800    460.24657   -1263.5406   -1241.8856   -15519.388      18.8088      18.8088      18.8088    7863.5783 
   27900    465.81094   -1263.6994   -1241.7827   -15505.446      18.8088      18.8088      18.8088    620.68286 
   28000    465.06451   -1263.5609   -1241.6793   -15484.872      18.8088      18.8088      18.8088    264.15785 
Loop time of 1.13811 on 1 procs for 2000 steps with 365 atoms

Performance: 15.183 ns/day, 1.581 hours/ns, 1757.307 timesteps/s
100.0% CPU use with 1 MPI tasks x 1 OpenMP threads

MPI task timing breakdown:
Section |  min time  |  avg time  |  max time  |%varavg| %total
---------------------------------------------------------------
Pair    | 1.0804     | 1.0804     | 1.0804     |   0.0 | 94.93
Neigh   | 0.028649   | 0.028649   | 0.028649   |   0.0 |  2.52
Comm    | 0.0084465  | 0.0084465  | 0.0084465  |   0.0 |  0.74
Output  | 0.00022262 | 0.00022262 | 0.00022262 |   0.0 |  0.02
Modify  | 0.01753    | 0.01753    | 0.01753    |   0.0 |  1.54
Other   |            | 0.002835   |            |       |  0.25

Nlocal:    365 ave 365 max 365 min
Histogram: 1 0 0 0 0 0 0 0 0 0
Nghost:    1198 ave 1198 max 1198 min
Histogram: 1 0 0 0 0 0 0 0 0 0
Neighs:    13149 ave 13149 max 13149 min
Histogram: 1 0 0 0 0 0 0 0 0 0

Total # of neighbors = 13149
Ave neighs/atom = 36.0247
Neighbor list builds = 73
Dangerous builds = 0
next loopNum
jump SELF loop
if              "${variance} > 1000" then "run 2000" "next loopNum" "jump SELF loop" else "print 'continue'"
print 'continue'
continue



unfix		 avepress
unfix		 avepresssq
thermo 100
thermo_style custom step vol lx ly lz press
reset_timestep 0
shell echo ${loopNum} > loopNum${SIMNUM}.txt
shell echo 122 > loopNum${SIMNUM}.txt
shell echo 122 > loopNum5.txt
run 		${RUNNUMBER}
run 		500000
Per MPI rank memory allocation (min/avg/max) = 2.988 | 2.988 | 2.988 Mbytes
Step Volume Lx Ly Lz Press 
       0    6654.0072      18.8088      18.8088      18.8088   -15484.872 
     100    6654.0072      18.8088      18.8088      18.8088   -15272.399 
     200    6654.0072      18.8088      18.8088      18.8088   -14977.786 
     300    6654.0072      18.8088      18.8088      18.8088   -14878.494 
     400    6654.0072      18.8088      18.8088      18.8088   -14626.942 
     500    6654.0072      18.8088      18.8088      18.8088   -14303.852 
     600    6654.0072      18.8088      18.8088      18.8088   -13573.281 
     700    6654.0072      18.8088      18.8088      18.8088   -12595.362 
     800    6654.0072      18.8088      18.8088      18.8088   -11882.212 
     900    6654.0072      18.8088      18.8088      18.8088   -11337.297 
    1000    6654.0072      18.8088      18.8088      18.8088   -10726.525 
    1100    6654.0072      18.8088      18.8088      18.8088   -10278.304 
    1200    6654.0072      18.8088      18.8088      18.8088   -9646.9673 
    1300    6654.0072      18.8088      18.8088      18.8088   -9281.4471 
    1400    6654.0072      18.8088      18.8088      18.8088   -8737.2214 
    1500    6654.0072      18.8088      18.8088      18.8088   -8255.2528 
    1600    6654.0072      18.8088      18.8088      18.8088   -7806.9906 
    1700    6654.0072      18.8088      18.8088      18.8088    -7614.157 
    1800    6654.0072      18.8088      18.8088      18.8088   -7649.4023 
    1900    6654.0072      18.8088      18.8088      18.8088   -8257.8847 
    2000    6654.0072      18.8088      18.8088      18.8088   -8863.9945 
    2100    6654.0072      18.8088      18.8088      18.8088   -9546.4722 
    2200    6654.0072      18.8088      18.8088      18.8088   -9997.5613 
    2300    6654.0072      18.8088      18.8088      18.8088   -10245.941 
    2400    6654.0072      18.8088      18.8088      18.8088    -10266.85 
    2500    6654.0072      18.8088      18.8088      18.8088   -10194.708 
    2600    6654.0072      18.8088      18.8088      18.8088   -10445.922 
    2700    6654.0072      18.8088      18.8088      18.8088   -10773.581 
    2800    6654.0072      18.8088      18.8088      18.8088   -11056.874 
    2900    6654.0072      18.8088      18.8088      18.8088   -11274.511 
    3000    6654.0072      18.8088      18.8088      18.8088   -11523.654 
    3100    6654.0072      18.8088      18.8088      18.8088   -11648.517 
    3200    6654.0072      18.8088      18.8088      18.8088   -11631.601 
    3300    6654.0072      18.8088      18.8088      18.8088   -11316.733 
    3400    6654.0072      18.8088      18.8088      18.8088   -10735.251 
    3500    6654.0072      18.8088      18.8088      18.8088   -10497.691 
    3600    6654.0072      18.8088      18.8088      18.8088   -10902.431 
    3700    6654.0072      18.8088      18.8088      18.8088   -11610.985 
    3800    6654.0072      18.8088      18.8088      18.8088   -12763.908 
    3900    6654.0072      18.8088      18.8088      18.8088   -13801.643 
    4000    6654.0072      18.8088      18.8088      18.8088   -14600.262 
    4100    6654.0072      18.8088      18.8088      18.8088   -15232.956 
    4200    6654.0072      18.8088      18.8088      18.8088   -15893.809 
    4300    6654.0072      18.8088      18.8088      18.8088   -16267.477 
    4400    6654.0072      18.8088      18.8088      18.8088   -16582.505 
    4500    6654.0072      18.8088      18.8088      18.8088   -16466.449 
    4600    6654.0072      18.8088      18.8088      18.8088   -15945.174 
    4700    6654.0072      18.8088      18.8088      18.8088   -14931.765 
    4800    6654.0072      18.8088      18.8088      18.8088   -13676.541 
    4900    6654.0072      18.8088      18.8088      18.8088   -12821.101 
    5000    6654.0072      18.8088      18.8088      18.8088   -12545.941 
    5100    6654.0072      18.8088      18.8088      18.8088   -12182.241 
    5200    6654.0072      18.8088      18.8088      18.8088   -11521.826 
    5300    6654.0072      18.8088      18.8088      18.8088   -10366.249 
    5400    6654.0072      18.8088      18.8088      18.8088    -8964.027 
    5500    6654.0072      18.8088      18.8088      18.8088   -8137.1326 
    5600    6654.0072      18.8088      18.8088      18.8088   -7289.1343 
    5700    6654.0072      18.8088      18.8088      18.8088   -7166.7981 
    5800    6654.0072      18.8088      18.8088      18.8088   -7472.2577 
    5900    6654.0072      18.8088      18.8088      18.8088   -7829.1551 
    6000    6654.0072      18.8088      18.8088      18.8088   -8164.6239 
    6100    6654.0072      18.8088      18.8088      18.8088   -8742.5635 
    6200    6654.0072      18.8088      18.8088      18.8088   -9165.5302 
    6300    6654.0072      18.8088      18.8088      18.8088   -9481.7405 
    6400    6654.0072      18.8088      18.8088      18.8088   -9525.6668 
    6500    6654.0072      18.8088      18.8088      18.8088   -9308.7953 
    6600    6654.0072      18.8088      18.8088      18.8088   -9194.2426 
    6700    6654.0072      18.8088      18.8088      18.8088   -8927.2222 
    6800    6654.0072      18.8088      18.8088      18.8088    -8556.809 
    6900    6654.0072      18.8088      18.8088      18.8088   -8001.0442 
    7000    6654.0072      18.8088      18.8088      18.8088   -7086.7084 
    7100    6654.0072      18.8088      18.8088      18.8088    -6346.211 
    7200    6654.0072      18.8088      18.8088      18.8088   -5614.2583 
    7300    6654.0072      18.8088      18.8088      18.8088   -5379.8804 
    7400    6654.0072      18.8088      18.8088      18.8088    -5052.229 
    7500    6654.0072      18.8088      18.8088      18.8088   -4885.8027 
    7600    6654.0072      18.8088      18.8088      18.8088   -5047.0274 
    7700    6654.0072      18.8088      18.8088      18.8088   -5671.5183 
    7800    6654.0072      18.8088      18.8088      18.8088   -6837.3928 
    7900    6654.0072      18.8088      18.8088      18.8088   -8192.8887 
    8000    6654.0072      18.8088      18.8088      18.8088   -9310.7939 
    8100    6654.0072      18.8088      18.8088      18.8088   -10206.864 
    8200    6654.0072      18.8088      18.8088      18.8088   -10827.632 
    8300    6654.0072      18.8088      18.8088      18.8088   -11676.061 
    8400    6654.0072      18.8088      18.8088      18.8088   -12315.275 
    8500    6654.0072      18.8088      18.8088      18.8088   -12833.953 
    8600    6654.0072      18.8088      18.8088      18.8088   -13336.736 
    8700    6654.0072      18.8088      18.8088      18.8088   -13647.552 
    8800    6654.0072      18.8088      18.8088      18.8088   -13642.785 
    8900    6654.0072      18.8088      18.8088      18.8088   -13331.585 
    9000    6654.0072      18.8088      18.8088      18.8088   -13413.244 
    9100    6654.0072      18.8088      18.8088      18.8088   -13435.893 
    9200    6654.0072      18.8088      18.8088      18.8088   -13553.143 
    9300    6654.0072      18.8088      18.8088      18.8088   -13181.662 
    9400    6654.0072      18.8088      18.8088      18.8088   -12723.027 
    9500    6654.0072      18.8088      18.8088      18.8088    -12293.06 
    9600    6654.0072      18.8088      18.8088      18.8088   -12126.221 
    9700    6654.0072      18.8088      18.8088      18.8088   -12094.827 
    9800    6654.0072      18.8088      18.8088      18.8088   -12112.345 
    9900    6654.0072      18.8088      18.8088      18.8088   -12328.336 
   10000    6654.0072      18.8088      18.8088      18.8088   -12732.934 
   10100    6654.0072      18.8088      18.8088      18.8088   -13327.288 
   10200    6654.0072      18.8088      18.8088      18.8088   -13985.062 
   10300    6654.0072      18.8088      18.8088      18.8088    -14449.87 
   10400    6654.0072      18.8088      18.8088      18.8088   -14725.904 
   10500    6654.0072      18.8088      18.8088      18.8088   -14893.547 
   10600    6654.0072      18.8088      18.8088      18.8088   -15706.581 
   10700    6654.0072      18.8088      18.8088      18.8088   -16716.062 
   10800    6654.0072      18.8088      18.8088      18.8088   -17830.224 
   10900    6654.0072      18.8088      18.8088      18.8088   -19140.193 
   11000    6654.0072      18.8088      18.8088      18.8088   -19916.283 
   11100    6654.0072      18.8088      18.8088      18.8088   -19646.532 
   11200    6654.0072      18.8088      18.8088      18.8088   -18783.542 
   11300    6654.0072      18.8088      18.8088      18.8088   -17510.236 
   11400    6654.0072      18.8088      18.8088      18.8088   -16487.213 
   11500    6654.0072      18.8088      18.8088      18.8088   -15577.542 
   11600    6654.0072      18.8088      18.8088      18.8088    -14517.87 
   11700    6654.0072      18.8088      18.8088      18.8088   -13441.972 
   11800    6654.0072      18.8088      18.8088      18.8088    -12390.53 
   11900    6654.0072      18.8088      18.8088      18.8088   -11616.701 
   12000    6654.0072      18.8088      18.8088      18.8088   -11340.735 
   12100    6654.0072      18.8088      18.8088      18.8088    -11361.94 
   12200    6654.0072      18.8088      18.8088      18.8088   -12040.869 
   12300    6654.0072      18.8088      18.8088      18.8088   -13051.992 
   12400    6654.0072      18.8088      18.8088      18.8088   -14211.642 
   12500    6654.0072      18.8088      18.8088      18.8088   -14798.268 
   12600    6654.0072      18.8088      18.8088      18.8088   -14322.585 
   12700    6654.0072      18.8088      18.8088      18.8088   -13718.456 
   12800    6654.0072      18.8088      18.8088      18.8088   -13408.537 
   12900    6654.0072      18.8088      18.8088      18.8088   -13879.763 
   13000    6654.0072      18.8088      18.8088      18.8088   -14469.219 
   13100    6654.0072      18.8088      18.8088      18.8088   -14967.333 
   13200    6654.0072      18.8088      18.8088      18.8088   -14893.634 
   13300    6654.0072      18.8088      18.8088      18.8088   -14351.008 
   13400    6654.0072      18.8088      18.8088      18.8088   -13682.165 
   13500    6654.0072      18.8088      18.8088      18.8088   -13666.959 
   13600    6654.0072      18.8088      18.8088      18.8088   -14103.273 
   13700    6654.0072      18.8088      18.8088      18.8088   -14522.944 
   13800    6654.0072      18.8088      18.8088      18.8088   -14782.181 
   13900    6654.0072      18.8088      18.8088      18.8088   -14629.674 
   14000    6654.0072      18.8088      18.8088      18.8088   -14453.406 
   14100    6654.0072      18.8088      18.8088      18.8088   -14541.514 
   14200    6654.0072      18.8088      18.8088      18.8088   -14838.207 
   14300    6654.0072      18.8088      18.8088      18.8088    -15127.31 
   14400    6654.0072      18.8088      18.8088      18.8088    -15038.83 
   14500    6654.0072      18.8088      18.8088      18.8088     -14688.7 
   14600    6654.0072      18.8088      18.8088      18.8088   -14449.721 
   14700    6654.0072      18.8088      18.8088      18.8088   -14258.232 
   14800    6654.0072      18.8088      18.8088      18.8088   -14511.755 
   14900    6654.0072      18.8088      18.8088      18.8088   -14810.374 
   15000    6654.0072      18.8088      18.8088      18.8088   -15026.326 
   15100    6654.0072      18.8088      18.8088      18.8088   -14753.235 
   15200    6654.0072      18.8088      18.8088      18.8088   -14199.513 
   15300    6654.0072      18.8088      18.8088      18.8088   -13577.763 
   15400    6654.0072      18.8088      18.8088      18.8088   -13201.931 
   15500    6654.0072      18.8088      18.8088      18.8088   -12828.669 
   15600    6654.0072      18.8088      18.8088      18.8088   -12513.744 
   15700    6654.0072      18.8088      18.8088      18.8088   -12347.836 
   15800    6654.0072      18.8088      18.8088      18.8088    -12411.01 
   15900    6654.0072      18.8088      18.8088      18.8088   -12565.997 
   16000    6654.0072      18.8088      18.8088      18.8088    -13076.79 
   16100    6654.0072      18.8088      18.8088      18.8088   -13191.467 
   16200    6654.0072      18.8088      18.8088      18.8088   -12300.943 
   16300    6654.0072      18.8088      18.8088      18.8088   -11136.818 
   16400    6654.0072      18.8088      18.8088      18.8088   -10468.462 
   16500    6654.0072      18.8088      18.8088      18.8088   -10673.431 
   16600    6654.0072      18.8088      18.8088      18.8088   -11217.114 
   16700    6654.0072      18.8088      18.8088      18.8088   -11513.055 
   16800    6654.0072      18.8088      18.8088      18.8088   -11103.841 
   16900    6654.0072      18.8088      18.8088      18.8088   -10719.766 
   17000    6654.0072      18.8088      18.8088      18.8088   -10790.448 
   17100    6654.0072      18.8088      18.8088      18.8088   -10918.928 
   17200    6654.0072      18.8088      18.8088      18.8088   -10915.884 
   17300    6654.0072      18.8088      18.8088      18.8088   -10615.779 
   17400    6654.0072      18.8088      18.8088      18.8088   -10153.163 
   17500    6654.0072      18.8088      18.8088      18.8088   -9977.2959 
   17600    6654.0072      18.8088      18.8088      18.8088   -9834.3956 
   17700    6654.0072      18.8088      18.8088      18.8088   -9668.7013 
   17800    6654.0072      18.8088      18.8088      18.8088   -9494.3443 
   17900    6654.0072      18.8088      18.8088      18.8088   -9557.4222 
   18000    6654.0072      18.8088      18.8088      18.8088   -9818.1447 
   18100    6654.0072      18.8088      18.8088      18.8088   -9987.5492 
   18200    6654.0072      18.8088      18.8088      18.8088   -10105.844 
   18300    6654.0072      18.8088      18.8088      18.8088   -10365.483 
   18400    6654.0072      18.8088      18.8088      18.8088   -10817.976 
   18500    6654.0072      18.8088      18.8088      18.8088   -11514.684 
   18600    6654.0072      18.8088      18.8088      18.8088   -12319.993 
   18700    6654.0072      18.8088      18.8088      18.8088   -12951.995 
   18800    6654.0072      18.8088      18.8088      18.8088   -13050.138 
   18900    6654.0072      18.8088      18.8088      18.8088   -12828.949 
   19000    6654.0072      18.8088      18.8088      18.8088   -12505.631 
   19100    6654.0072      18.8088      18.8088      18.8088   -12585.455 
   19200    6654.0072      18.8088      18.8088      18.8088    -13456.56 
   19300    6654.0072      18.8088      18.8088      18.8088   -14458.688 
   19400    6654.0072      18.8088      18.8088      18.8088   -15462.632 
   19500    6654.0072      18.8088      18.8088      18.8088   -15728.139 
   19600    6654.0072      18.8088      18.8088      18.8088   -15559.262 
   19700    6654.0072      18.8088      18.8088      18.8088   -15604.118 
   19800    6654.0072      18.8088      18.8088      18.8088   -16335.587 
   19900    6654.0072      18.8088      18.8088      18.8088    -17391.89 
   20000    6654.0072      18.8088      18.8088      18.8088   -18288.119 
   20100    6654.0072      18.8088      18.8088      18.8088   -18363.314 
   20200    6654.0072      18.8088      18.8088      18.8088   -17968.849 
   20300    6654.0072      18.8088      18.8088      18.8088   -17258.605 
   20400    6654.0072      18.8088      18.8088      18.8088    -16161.91 
   20500    6654.0072      18.8088      18.8088      18.8088   -15435.867 
   20600    6654.0072      18.8088      18.8088      18.8088   -14875.016 
   20700    6654.0072      18.8088      18.8088      18.8088   -14404.015 
   20800    6654.0072      18.8088      18.8088      18.8088   -13752.251 
   20900    6654.0072      18.8088      18.8088      18.8088   -13115.769 
   21000    6654.0072      18.8088      18.8088      18.8088   -12634.299 
   21100    6654.0072      18.8088      18.8088      18.8088   -12897.516 
   21200    6654.0072      18.8088      18.8088      18.8088   -13849.482 
   21300    6654.0072      18.8088      18.8088      18.8088   -14766.951 
   21400    6654.0072      18.8088      18.8088      18.8088   -15488.063 
   21500    6654.0072      18.8088      18.8088      18.8088   -15644.246 
   21600    6654.0072      18.8088      18.8088      18.8088   -15104.555 
   21700    6654.0072      18.8088      18.8088      18.8088   -14134.117 
   21800    6654.0072      18.8088      18.8088      18.8088   -13157.057 
   21900    6654.0072      18.8088      18.8088      18.8088   -12587.807 
   22000    6654.0072      18.8088      18.8088      18.8088    -12204.25 
   22100    6654.0072      18.8088      18.8088      18.8088    -12108.49 
   22200    6654.0072      18.8088      18.8088      18.8088   -12207.402 
   22300    6654.0072      18.8088      18.8088      18.8088   -12174.582 
   22400    6654.0072      18.8088      18.8088      18.8088   -12428.651 
   22500    6654.0072      18.8088      18.8088      18.8088   -12537.726 
   22600    6654.0072      18.8088      18.8088      18.8088   -12426.413 
   22700    6654.0072      18.8088      18.8088      18.8088   -11706.137 
   22800    6654.0072      18.8088      18.8088      18.8088    -10623.08 
   22900    6654.0072      18.8088      18.8088      18.8088   -9828.5188 
   23000    6654.0072      18.8088      18.8088      18.8088   -9336.1545 
   23100    6654.0072      18.8088      18.8088      18.8088   -9282.0075 
   23200    6654.0072      18.8088      18.8088      18.8088   -9462.0919 
   23300    6654.0072      18.8088      18.8088      18.8088   -9796.5862 
   23400    6654.0072      18.8088      18.8088      18.8088     -10513.4 
   23500    6654.0072      18.8088      18.8088      18.8088   -11237.643 
   23600    6654.0072      18.8088      18.8088      18.8088   -11589.367 
   23700    6654.0072      18.8088      18.8088      18.8088   -11440.127 
   23800    6654.0072      18.8088      18.8088      18.8088   -11362.609 
   23900    6654.0072      18.8088      18.8088      18.8088   -11411.706 
   24000    6654.0072      18.8088      18.8088      18.8088   -12119.448 
   24100    6654.0072      18.8088      18.8088      18.8088   -13086.051 
   24200    6654.0072      18.8088      18.8088      18.8088   -13921.134 
   24300    6654.0072      18.8088      18.8088      18.8088   -14460.833 
   24400    6654.0072      18.8088      18.8088      18.8088   -14733.263 
   24500    6654.0072      18.8088      18.8088      18.8088   -15029.964 
   24600    6654.0072      18.8088      18.8088      18.8088   -15677.067 
   24700    6654.0072      18.8088      18.8088      18.8088   -16342.759 
   24800    6654.0072      18.8088      18.8088      18.8088   -16809.073 
   24900    6654.0072      18.8088      18.8088      18.8088   -16888.445 
   25000    6654.0072      18.8088      18.8088      18.8088   -16839.226 
   25100    6654.0072      18.8088      18.8088      18.8088   -16680.744 
   25200    6654.0072      18.8088      18.8088      18.8088   -16579.044 
   25300    6654.0072      18.8088      18.8088      18.8088   -16752.016 
   25400    6654.0072      18.8088      18.8088      18.8088   -17664.118 
   25500    6654.0072      18.8088      18.8088      18.8088   -18691.994 
   25600    6654.0072      18.8088      18.8088      18.8088   -19402.714 
   25700    6654.0072      18.8088      18.8088      18.8088   -19441.195 
   25800    6654.0072      18.8088      18.8088      18.8088   -18882.141 
   25900    6654.0072      18.8088      18.8088      18.8088   -18315.887 
   26000    6654.0072      18.8088      18.8088      18.8088   -17666.374 
   26100    6654.0072      18.8088      18.8088      18.8088   -17149.876 
   26200    6654.0072      18.8088      18.8088      18.8088    -16968.43 
   26300    6654.0072      18.8088      18.8088      18.8088   -16548.205 
   26400    6654.0072      18.8088      18.8088      18.8088   -16718.328 
   26500    6654.0072      18.8088      18.8088      18.8088   -16646.648 
   26600    6654.0072      18.8088      18.8088      18.8088   -16729.727 
   26700    6654.0072      18.8088      18.8088      18.8088   -16873.281 
   26800    6654.0072      18.8088      18.8088      18.8088   -16941.506 
   26900    6654.0072      18.8088      18.8088      18.8088   -16798.762 
   27000    6654.0072      18.8088      18.8088      18.8088   -16544.602 
   27100    6654.0072      18.8088      18.8088      18.8088   -15944.901 
   27200    6654.0072      18.8088      18.8088      18.8088    -15319.27 
   27300    6654.0072      18.8088      18.8088      18.8088   -14517.354 
   27400    6654.0072      18.8088      18.8088      18.8088   -13910.913 
   27500    6654.0072      18.8088      18.8088      18.8088   -13387.602 
   27600    6654.0072      18.8088      18.8088      18.8088   -12916.383 
   27700    6654.0072      18.8088      18.8088      18.8088   -12241.135 
   27800    6654.0072      18.8088      18.8088      18.8088   -11300.754 
   27900    6654.0072      18.8088      18.8088      18.8088   -10950.831 
   28000    6654.0072      18.8088      18.8088      18.8088    -10803.73 
   28100    6654.0072      18.8088      18.8088      18.8088   -11320.648 
   28200    6654.0072      18.8088      18.8088      18.8088   -12166.299 
   28300    6654.0072      18.8088      18.8088      18.8088   -13098.439 
   28400    6654.0072      18.8088      18.8088      18.8088   -13719.183 
   28500    6654.0072      18.8088      18.8088      18.8088   -13830.429 
   28600    6654.0072      18.8088      18.8088      18.8088   -13605.547 
   28700    6654.0072      18.8088      18.8088      18.8088   -13556.985 
   28800    6654.0072      18.8088      18.8088      18.8088    -13421.87 
   28900    6654.0072      18.8088      18.8088      18.8088   -13605.275 
   29000    6654.0072      18.8088      18.8088      18.8088   -13835.957 
   29100    6654.0072      18.8088      18.8088      18.8088   -14513.644 
   29200    6654.0072      18.8088      18.8088      18.8088    -15111.92 
   29300    6654.0072      18.8088      18.8088      18.8088    -15364.48 
   29400    6654.0072      18.8088      18.8088      18.8088    -15585.57 
   29500    6654.0072      18.8088      18.8088      18.8088    -15264.55 
   29600    6654.0072      18.8088      18.8088      18.8088   -14792.647 
   29700    6654.0072      18.8088      18.8088      18.8088   -14740.555 
   29800    6654.0072      18.8088      18.8088      18.8088   -15449.164 
   29900    6654.0072      18.8088      18.8088      18.8088   -16739.472 
   30000    6654.0072      18.8088      18.8088      18.8088   -18126.177 
   30100    6654.0072      18.8088      18.8088      18.8088   -18922.158 
   30200    6654.0072      18.8088      18.8088      18.8088   -19270.873 
   30300    6654.0072      18.8088      18.8088      18.8088   -19034.591 
   30400    6654.0072      18.8088      18.8088      18.8088   -18976.512 
   30500    6654.0072      18.8088      18.8088      18.8088   -19285.275 
   30600    6654.0072      18.8088      18.8088      18.8088   -19492.331 
   30700    6654.0072      18.8088      18.8088      18.8088   -20069.374 
   30800    6654.0072      18.8088      18.8088      18.8088   -20540.559 
   30900    6654.0072      18.8088      18.8088      18.8088   -20492.989 
   31000    6654.0072      18.8088      18.8088      18.8088   -20187.545 
   31100    6654.0072      18.8088      18.8088      18.8088    -20014.05 
   31200    6654.0072      18.8088      18.8088      18.8088   -20358.462 
   31300    6654.0072      18.8088      18.8088      18.8088   -21004.361 
   31400    6654.0072      18.8088      18.8088      18.8088   -21684.548 
   31500    6654.0072      18.8088      18.8088      18.8088   -22076.278 
   31600    6654.0072      18.8088      18.8088      18.8088   -22231.166 
   31700    6654.0072      18.8088      18.8088      18.8088   -21610.726 
   31800    6654.0072      18.8088      18.8088      18.8088   -20323.518 
   31900    6654.0072      18.8088      18.8088      18.8088   -19066.104 
   32000    6654.0072      18.8088      18.8088      18.8088   -18330.985 
   32100    6654.0072      18.8088      18.8088      18.8088   -18232.369 
   32200    6654.0072      18.8088      18.8088      18.8088   -18153.321 
   32300    6654.0072      18.8088      18.8088      18.8088   -17828.965 
   32400    6654.0072      18.8088      18.8088      18.8088   -16934.226 
   32500    6654.0072      18.8088      18.8088      18.8088   -16331.934 
   32600    6654.0072      18.8088      18.8088      18.8088   -16199.025 
   32700    6654.0072      18.8088      18.8088      18.8088   -16483.414 
   32800    6654.0072      18.8088      18.8088      18.8088   -16788.102 
[...]
  474900    6654.0072      18.8088      18.8088      18.8088   -14632.318 
  475000    6654.0072      18.8088      18.8088      18.8088   -13993.064 
  475100    6654.0072      18.8088      18.8088      18.8088   -12578.008 
  475200    6654.0072      18.8088      18.8088      18.8088   -10403.315 
  475300    6654.0072      18.8088      18.8088      18.8088   -8875.1918 
  475400    6654.0072      18.8088      18.8088      18.8088    -8628.632 
  475500    6654.0072      18.8088      18.8088      18.8088   -9597.9557 
  475600    6654.0072      18.8088      18.8088      18.8088   -9901.0411 
  475700    6654.0072      18.8088      18.8088      18.8088   -9535.7769 
  475800    6654.0072      18.8088      18.8088      18.8088   -8620.8474 
  475900    6654.0072      18.8088      18.8088      18.8088   -7730.3552 
  476000    6654.0072      18.8088      18.8088      18.8088   -6834.6429 
  476100    6654.0072      18.8088      18.8088      18.8088   -6104.7479 
  476200    6654.0072      18.8088      18.8088      18.8088   -5930.4323 
  476300    6654.0072      18.8088      18.8088      18.8088   -6401.7927 
  476400    6654.0072      18.8088      18.8088      18.8088   -7018.3836 
  476500    6654.0072      18.8088      18.8088      18.8088   -7457.7924 
  476600    6654.0072      18.8088      18.8088      18.8088   -7990.8038 
  476700    6654.0072      18.8088      18.8088      18.8088   -9337.9107 
  476800    6654.0072      18.8088      18.8088      18.8088   -10375.641 
  476900    6654.0072      18.8088      18.8088      18.8088   -10865.236 
  477000    6654.0072      18.8088      18.8088      18.8088   -10726.672 
  477100    6654.0072      18.8088      18.8088      18.8088   -10507.228 
  477200    6654.0072      18.8088      18.8088      18.8088   -11170.553 
  477300    6654.0072      18.8088      18.8088      18.8088   -12439.302 
  477400    6654.0072      18.8088      18.8088      18.8088   -13737.408 
  477500    6654.0072      18.8088      18.8088      18.8088   -14126.712 
  477600    6654.0072      18.8088      18.8088      18.8088   -14315.394 
  477700    6654.0072      18.8088      18.8088      18.8088   -14435.312 
  477800    6654.0072      18.8088      18.8088      18.8088   -14416.287 
  477900    6654.0072      18.8088      18.8088      18.8088   -14011.766 
  478000    6654.0072      18.8088      18.8088      18.8088   -13659.093 
  478100    6654.0072      18.8088      18.8088      18.8088   -13359.386 
  478200    6654.0072      18.8088      18.8088      18.8088   -13636.338 
  478300    6654.0072      18.8088      18.8088      18.8088   -14147.961 
  478400    6654.0072      18.8088      18.8088      18.8088   -14774.902 
  478500    6654.0072      18.8088      18.8088      18.8088   -15963.649 
  478600    6654.0072      18.8088      18.8088      18.8088    -17537.96 
  478700    6654.0072      18.8088      18.8088      18.8088   -19028.181 
  478800    6654.0072      18.8088      18.8088      18.8088   -19723.333 
  478900    6654.0072      18.8088      18.8088      18.8088   -20021.557 
  479000    6654.0072      18.8088      18.8088      18.8088   -20646.999 
  479100    6654.0072      18.8088      18.8088      18.8088   -21913.629 
  479200    6654.0072      18.8088      18.8088      18.8088   -23669.251 
  479300    6654.0072      18.8088      18.8088      18.8088   -24556.066 
  479400    6654.0072      18.8088      18.8088      18.8088   -24401.926 
  479500    6654.0072      18.8088      18.8088      18.8088   -23632.812 
  479600    6654.0072      18.8088      18.8088      18.8088   -22768.353 
  479700    6654.0072      18.8088      18.8088      18.8088   -21794.723 
  479800    6654.0072      18.8088      18.8088      18.8088   -21159.247 
  479900    6654.0072      18.8088      18.8088      18.8088   -20884.312 
  480000    6654.0072      18.8088      18.8088      18.8088   -20714.192 
  480100    6654.0072      18.8088      18.8088      18.8088   -20268.018 
  480200    6654.0072      18.8088      18.8088      18.8088   -19075.491 
  480300    6654.0072      18.8088      18.8088      18.8088   -17966.427 
  480400    6654.0072      18.8088      18.8088      18.8088   -17491.523 
  480500    6654.0072      18.8088      18.8088      18.8088   -17706.356 
  480600    6654.0072      18.8088      18.8088      18.8088   -18326.773 
  480700    6654.0072      18.8088      18.8088      18.8088   -19077.986 
  480800    6654.0072      18.8088      18.8088      18.8088   -19138.932 
  480900    6654.0072      18.8088      18.8088      18.8088   -18528.491 
  481000    6654.0072      18.8088      18.8088      18.8088   -18098.384 
  481100    6654.0072      18.8088      18.8088      18.8088   -18335.636 
  481200    6654.0072      18.8088      18.8088      18.8088   -18929.507 
  481300    6654.0072      18.8088      18.8088      18.8088   -19417.872 
  481400    6654.0072      18.8088      18.8088      18.8088    -19238.86 
  481500    6654.0072      18.8088      18.8088      18.8088   -18329.281 
  481600    6654.0072      18.8088      18.8088      18.8088   -17506.179 
  481700    6654.0072      18.8088      18.8088      18.8088   -16745.645 
  481800    6654.0072      18.8088      18.8088      18.8088   -16520.721 
  481900    6654.0072      18.8088      18.8088      18.8088   -16403.349 
  482000    6654.0072      18.8088      18.8088      18.8088   -16108.867 
  482100    6654.0072      18.8088      18.8088      18.8088   -15093.823 
  482200    6654.0072      18.8088      18.8088      18.8088   -13764.255 
  482300    6654.0072      18.8088      18.8088      18.8088   -13340.401 
  482400    6654.0072      18.8088      18.8088      18.8088   -13201.072 
  482500    6654.0072      18.8088      18.8088      18.8088   -12701.704 
  482600    6654.0072      18.8088      18.8088      18.8088   -12373.482 
  482700    6654.0072      18.8088      18.8088      18.8088    -12932.81 
  482800    6654.0072      18.8088      18.8088      18.8088   -14277.542 
  482900    6654.0072      18.8088      18.8088      18.8088   -15898.691 
  483000    6654.0072      18.8088      18.8088      18.8088   -16917.633 
  483100    6654.0072      18.8088      18.8088      18.8088   -17344.556 
  483200    6654.0072      18.8088      18.8088      18.8088   -17644.194 
  483300    6654.0072      18.8088      18.8088      18.8088   -18248.594 
  483400    6654.0072      18.8088      18.8088      18.8088   -18955.267 
  483500    6654.0072      18.8088      18.8088      18.8088   -19895.257 
  483600    6654.0072      18.8088      18.8088      18.8088   -20267.428 
  483700    6654.0072      18.8088      18.8088      18.8088   -20551.072 
  483800    6654.0072      18.8088      18.8088      18.8088   -21033.664 
  483900    6654.0072      18.8088      18.8088      18.8088   -21482.904 
  484000    6654.0072      18.8088      18.8088      18.8088   -21465.637 
  484100    6654.0072      18.8088      18.8088      18.8088   -20730.212 
  484200    6654.0072      18.8088      18.8088      18.8088   -19947.721 
  484300    6654.0072      18.8088      18.8088      18.8088    -19094.42 
  484400    6654.0072      18.8088      18.8088      18.8088   -18880.914 
  484500    6654.0072      18.8088      18.8088      18.8088    -18735.18 
  484600    6654.0072      18.8088      18.8088      18.8088   -18665.123 
  484700    6654.0072      18.8088      18.8088      18.8088    -18909.61 
  484800    6654.0072      18.8088      18.8088      18.8088    -19408.45 
  484900    6654.0072      18.8088      18.8088      18.8088   -19728.905 
  485000    6654.0072      18.8088      18.8088      18.8088   -19847.571 
  485100    6654.0072      18.8088      18.8088      18.8088   -20316.356 
  485200    6654.0072      18.8088      18.8088      18.8088   -21242.687 
  485300    6654.0072      18.8088      18.8088      18.8088   -22203.376 
  485400    6654.0072      18.8088      18.8088      18.8088   -22381.754 
  485500    6654.0072      18.8088      18.8088      18.8088   -21822.722 
  485600    6654.0072      18.8088      18.8088      18.8088   -21083.701 
  485700    6654.0072      18.8088      18.8088      18.8088   -21207.645 
  485800    6654.0072      18.8088      18.8088      18.8088   -21531.527 
  485900    6654.0072      18.8088      18.8088      18.8088   -22000.925 
  486000    6654.0072      18.8088      18.8088      18.8088   -22563.682 
  486100    6654.0072      18.8088      18.8088      18.8088   -22955.327 
  486200    6654.0072      18.8088      18.8088      18.8088   -22621.925 
  486300    6654.0072      18.8088      18.8088      18.8088   -22029.453 
  486400    6654.0072      18.8088      18.8088      18.8088   -21267.886 
  486500    6654.0072      18.8088      18.8088      18.8088   -20611.603 
  486600    6654.0072      18.8088      18.8088      18.8088   -20184.543 
  486700    6654.0072      18.8088      18.8088      18.8088   -20068.598 
  486800    6654.0072      18.8088      18.8088      18.8088   -19834.497 
  486900    6654.0072      18.8088      18.8088      18.8088   -18975.871 
  487000    6654.0072      18.8088      18.8088      18.8088   -17527.881 
  487100    6654.0072      18.8088      18.8088      18.8088   -15991.572 
  487200    6654.0072      18.8088      18.8088      18.8088   -14858.389 
  487300    6654.0072      18.8088      18.8088      18.8088   -14888.476 
  487400    6654.0072      18.8088      18.8088      18.8088   -15495.457 
  487500    6654.0072      18.8088      18.8088      18.8088   -15921.983 
  487600    6654.0072      18.8088      18.8088      18.8088   -14914.789 
  487700    6654.0072      18.8088      18.8088      18.8088   -13209.839 
  487800    6654.0072      18.8088      18.8088      18.8088   -11198.666 
  487900    6654.0072      18.8088      18.8088      18.8088   -10353.349 
  488000    6654.0072      18.8088      18.8088      18.8088   -10836.934 
  488100    6654.0072      18.8088      18.8088      18.8088   -12379.938 
  488200    6654.0072      18.8088      18.8088      18.8088   -14035.705 
  488300    6654.0072      18.8088      18.8088      18.8088    -14663.24 
  488400    6654.0072      18.8088      18.8088      18.8088   -14175.162 
  488500    6654.0072      18.8088      18.8088      18.8088   -13181.783 
  488600    6654.0072      18.8088      18.8088      18.8088   -12606.192 
  488700    6654.0072      18.8088      18.8088      18.8088   -12226.283 
  488800    6654.0072      18.8088      18.8088      18.8088   -11511.949 
  488900    6654.0072      18.8088      18.8088      18.8088   -10805.875 
  489000    6654.0072      18.8088      18.8088      18.8088   -10712.668 
  489100    6654.0072      18.8088      18.8088      18.8088   -11264.622 
  489200    6654.0072      18.8088      18.8088      18.8088   -11255.457 
  489300    6654.0072      18.8088      18.8088      18.8088   -10968.516 
  489400    6654.0072      18.8088      18.8088      18.8088   -11172.174 
  489500    6654.0072      18.8088      18.8088      18.8088   -12461.065 
  489600    6654.0072      18.8088      18.8088      18.8088   -14439.577 
  489700    6654.0072      18.8088      18.8088      18.8088   -15888.981 
  489800    6654.0072      18.8088      18.8088      18.8088   -16556.949 
  489900    6654.0072      18.8088      18.8088      18.8088   -17008.499 
  490000    6654.0072      18.8088      18.8088      18.8088   -17339.875 
  490100    6654.0072      18.8088      18.8088      18.8088   -17480.676 
  490200    6654.0072      18.8088      18.8088      18.8088   -17555.003 
  490300    6654.0072      18.8088      18.8088      18.8088   -17443.131 
  490400    6654.0072      18.8088      18.8088      18.8088   -17364.834 
  490500    6654.0072      18.8088      18.8088      18.8088   -17649.718 
  490600    6654.0072      18.8088      18.8088      18.8088   -17907.586 
  490700    6654.0072      18.8088      18.8088      18.8088   -18800.389 
  490800    6654.0072      18.8088      18.8088      18.8088   -20065.804 
  490900    6654.0072      18.8088      18.8088      18.8088   -20543.869 
  491000    6654.0072      18.8088      18.8088      18.8088   -20397.376 
  491100    6654.0072      18.8088      18.8088      18.8088   -20123.545 
  491200    6654.0072      18.8088      18.8088      18.8088   -20036.322 
  491300    6654.0072      18.8088      18.8088      18.8088   -20065.137 
  491400    6654.0072      18.8088      18.8088      18.8088   -20227.471 
  491500    6654.0072      18.8088      18.8088      18.8088   -20498.065 
  491600    6654.0072      18.8088      18.8088      18.8088    -20583.41 
  491700    6654.0072      18.8088      18.8088      18.8088   -20259.262 
  491800    6654.0072      18.8088      18.8088      18.8088   -19831.906 
  491900    6654.0072      18.8088      18.8088      18.8088   -19171.117 
  492000    6654.0072      18.8088      18.8088      18.8088   -18240.419 
  492100    6654.0072      18.8088      18.8088      18.8088   -17326.623 
  492200    6654.0072      18.8088      18.8088      18.8088   -17228.735 
  492300    6654.0072      18.8088      18.8088      18.8088   -17126.409 
  492400    6654.0072      18.8088      18.8088      18.8088   -16790.809 
  492500    6654.0072      18.8088      18.8088      18.8088   -16626.569 
  492600    6654.0072      18.8088      18.8088      18.8088   -16163.331 
  492700    6654.0072      18.8088      18.8088      18.8088   -15319.822 
  492800    6654.0072      18.8088      18.8088      18.8088   -14166.094 
  492900    6654.0072      18.8088      18.8088      18.8088   -13209.587 
  493000    6654.0072      18.8088      18.8088      18.8088    -12352.47 
  493100    6654.0072      18.8088      18.8088      18.8088   -11372.911 
  493200    6654.0072      18.8088      18.8088      18.8088   -10431.124 
  493300    6654.0072      18.8088      18.8088      18.8088   -10490.278 
  493400    6654.0072      18.8088      18.8088      18.8088   -11341.553 
  493500    6654.0072      18.8088      18.8088      18.8088   -12427.675 
  493600    6654.0072      18.8088      18.8088      18.8088   -13280.138 
  493700    6654.0072      18.8088      18.8088      18.8088   -14060.815 
  493800    6654.0072      18.8088      18.8088      18.8088   -14431.377 
  493900    6654.0072      18.8088      18.8088      18.8088   -14515.942 
  494000    6654.0072      18.8088      18.8088      18.8088   -14516.463 
  494100    6654.0072      18.8088      18.8088      18.8088   -14511.229 
  494200    6654.0072      18.8088      18.8088      18.8088    -14244.82 
  494300    6654.0072      18.8088      18.8088      18.8088   -13829.928 
  494400    6654.0072      18.8088      18.8088      18.8088     -13927.8 
  494500    6654.0072      18.8088      18.8088      18.8088   -14588.771 
  494600    6654.0072      18.8088      18.8088      18.8088   -15426.083 
  494700    6654.0072      18.8088      18.8088      18.8088   -16031.429 
  494800    6654.0072      18.8088      18.8088      18.8088   -16387.357 
  494900    6654.0072      18.8088      18.8088      18.8088   -16922.371 
  495000    6654.0072      18.8088      18.8088      18.8088    -17007.96 
  495100    6654.0072      18.8088      18.8088      18.8088   -16905.474 
  495200    6654.0072      18.8088      18.8088      18.8088   -16539.719 
  495300    6654.0072      18.8088      18.8088      18.8088   -15743.502 
  495400    6654.0072      18.8088      18.8088      18.8088   -15300.936 
  495500    6654.0072      18.8088      18.8088      18.8088   -15453.944 
  495600    6654.0072      18.8088      18.8088      18.8088   -16393.887 
  495700    6654.0072      18.8088      18.8088      18.8088   -17090.383 
  495800    6654.0072      18.8088      18.8088      18.8088   -16951.434 
  495900    6654.0072      18.8088      18.8088      18.8088   -16435.148 
  496000    6654.0072      18.8088      18.8088      18.8088   -15939.874 
  496100    6654.0072      18.8088      18.8088      18.8088   -15826.043 
  496200    6654.0072      18.8088      18.8088      18.8088   -15670.413 
  496300    6654.0072      18.8088      18.8088      18.8088   -15702.703 
  496400    6654.0072      18.8088      18.8088      18.8088   -15789.081 
  496500    6654.0072      18.8088      18.8088      18.8088   -16104.095 
  496600    6654.0072      18.8088      18.8088      18.8088   -16666.696 
  496700    6654.0072      18.8088      18.8088      18.8088   -17626.939 
  496800    6654.0072      18.8088      18.8088      18.8088   -18261.164 
  496900    6654.0072      18.8088      18.8088      18.8088   -18242.949 
  497000    6654.0072      18.8088      18.8088      18.8088   -17471.336 
  497100    6654.0072      18.8088      18.8088      18.8088   -16786.547 
  497200    6654.0072      18.8088      18.8088      18.8088   -15732.101 
  497300    6654.0072      18.8088      18.8088      18.8088    -14852.34 
  497400    6654.0072      18.8088      18.8088      18.8088   -14057.238 
  497500    6654.0072      18.8088      18.8088      18.8088   -13609.969 
  497600    6654.0072      18.8088      18.8088      18.8088   -13260.513 
  497700    6654.0072      18.8088      18.8088      18.8088   -12533.032 
  497800    6654.0072      18.8088      18.8088      18.8088   -12307.125 
  497900    6654.0072      18.8088      18.8088      18.8088   -12380.132 
  498000    6654.0072      18.8088      18.8088      18.8088   -12500.774 
  498100    6654.0072      18.8088      18.8088      18.8088   -12408.524 
  498200    6654.0072      18.8088      18.8088      18.8088   -11869.918 
  498300    6654.0072      18.8088      18.8088      18.8088   -11706.166 
  498400    6654.0072      18.8088      18.8088      18.8088   -11857.654 
  498500    6654.0072      18.8088      18.8088      18.8088   -12832.293 
  498600    6654.0072      18.8088      18.8088      18.8088   -14083.945 
  498700    6654.0072      18.8088      18.8088      18.8088   -15190.641 
  498800    6654.0072      18.8088      18.8088      18.8088   -16351.566 
  498900    6654.0072      18.8088      18.8088      18.8088   -17398.291 
  499000    6654.0072      18.8088      18.8088      18.8088   -18132.352 
  499100    6654.0072      18.8088      18.8088      18.8088   -18319.893 
  499200    6654.0072      18.8088      18.8088      18.8088   -17848.461 
  499300    6654.0072      18.8088      18.8088      18.8088   -17051.367 
  499400    6654.0072      18.8088      18.8088      18.8088   -16340.363 
  499500    6654.0072      18.8088      18.8088      18.8088    -16459.19 
  499600    6654.0072      18.8088      18.8088      18.8088   -17202.643 
  499700    6654.0072      18.8088      18.8088      18.8088   -18478.752 
  499800    6654.0072      18.8088      18.8088      18.8088   -19373.827 
  499900    6654.0072      18.8088      18.8088      18.8088    -19670.89 
  500000    6654.0072      18.8088      18.8088      18.8088   -19113.263 
Loop time of 276.236 on 1 procs for 500000 steps with 365 atoms

Performance: 15.639 ns/day, 1.535 hours/ns, 1810.046 timesteps/s
100.0% CPU use with 1 MPI tasks x 1 OpenMP threads

MPI task timing breakdown:
Section |  min time  |  avg time  |  max time  |%varavg| %total
---------------------------------------------------------------
Pair    | 260.2      | 260.2      | 260.2      |   0.0 | 94.19
Neigh   | 10.729     | 10.729     | 10.729     |   0.0 |  3.88
Comm    | 2.2852     | 2.2852     | 2.2852     |   0.0 |  0.83
Output  | 0.044821   | 0.044821   | 0.044821   |   0.0 |  0.02
Modify  | 2.3183     | 2.3183     | 2.3183     |   0.0 |  0.84
Other   |            | 0.6633     |            |       |  0.24

Nlocal:    365 ave 365 max 365 min
Histogram: 1 0 0 0 0 0 0 0 0 0
Nghost:    1215 ave 1215 max 1215 min
Histogram: 1 0 0 0 0 0 0 0 0 0
Neighs:    12773 ave 12773 max 12773 min
Histogram: 1 0 0 0 0 0 0 0 0 0

Total # of neighbors = 12773
Ave neighs/atom = 34.9945
Neighbor list builds = 27576
Dangerous builds = 0
