
units 		metal
dimension 	3
boundary 	p p p
atom_style 	atomic


#--------------Create Atom----------------------------

read_data	data.CuNi${SIMNUM} #append num for atoms or time
read_data	data.CuNi2 
  orthogonal box = (-0.02 -0.02 -0.02) to (4.62 4.62 4.62)
  1 by 1 by 1 MPI processor grid
  reading atoms ...
  14 atoms
  reading velocities ...
  14 velocities


#---------------Define Interatomic Potential----------

pair_style eam/alloy
pair_coeff * * CuNi.eam.alloy Ni Cu
Reading potential file CuNi.eam.alloy with DATE: 2014-07-11
neighbor .05 bin
neigh_modify delay 10 check yes

#---------------Define Settings--------------


#---------------Specify Volume------------------------

change_box all x scale ${SCALE} y scale ${SCALE} z scale ${SCALE}
change_box all x scale 1.006 y scale ${SCALE} z scale ${SCALE}
change_box all x scale 1.006 y scale 1.006 z scale ${SCALE}
change_box all x scale 1.006 y scale 1.006 z scale 1.006
  orthogonal box = (-0.03392 -0.02 -0.02) to (4.63392 4.62 4.62)
  orthogonal box = (-0.03392 -0.03392 -0.02) to (4.63392 4.63392 4.62)
  orthogonal box = (-0.03392 -0.03392 -0.03392) to (4.63392 4.63392 4.63392)

#---------------Run Minimization----------------------

reset_timestep 0
timestep 0.0001
thermo          100
thermo_style    custom step temp pe etotal press lx ly lz



min_style cg # use conjugate gradient method
minimize 1.0e-4 1.0e-6 100 100000
WARNING: Using 'neigh_modify every 1 delay 0 check yes' setting during minimization (src/min.cpp:168)
Neighbor list info ...
  update every 1 steps, delay 0 steps, check yes
  max neighbors/atom: 2000, page size: 100000
  master list distance cutoff = 6.44433
  ghost atom cutoff = 6.44433
  binsize = 3.22217, bins = 2 2 2
  1 neighbor lists, perpetual/occasional/extra = 1 0 0
  (1) pair eam/alloy, perpetual
      attributes: half, newton on
      pair build: half/bin/atomonly/newton
      stencil: half/bin/3d/newton
      bin: standard
Per MPI rank memory allocation (min/avg/max) = 4.096 | 4.096 | 4.096 Mbytes
Step Temp PotEng TotEng Press Lx Ly Lz 
       0            0    13468.045    13468.045     15887123      4.66784      4.66784      4.66784 
      66            0   -22.822069   -22.822069    1921532.7      4.66784      4.66784      4.66784 
Loop time of 0.00868551 on 1 procs for 66 steps with 14 atoms

100.1% CPU use with 1 MPI tasks x 1 OpenMP threads

Minimization stats:
  Stopping criterion = energy tolerance
  Energy initial, next-to-last, final = 
         13468.0445004     -22.8208492405     -22.8220694766
  Force two-norm initial, final = 18219.4 0.22493
  Force max component initial, final = 4690.3 0.065889
  Final line search alpha, max atom move = 0.530029 0.0349231
  Iterations, force evaluations = 66 104

MPI task timing breakdown:
Section |  min time  |  avg time  |  max time  |%varavg| %total
---------------------------------------------------------------
Pair    | 0.0053248  | 0.0053248  | 0.0053248  |   0.0 | 61.31
Neigh   | 0.0022249  | 0.0022249  | 0.0022249  |   0.0 | 25.62
Comm    | 0.00090864 | 0.00090864 | 0.00090864 |   0.0 | 10.46
Output  | 0          | 0          | 0          |   0.0 |  0.00
Modify  | 0          | 0          | 0          |   0.0 |  0.00
Other   |            | 0.0002272  |            |       |  2.62

Nlocal:    14 ave 14 max 14 min
Histogram: 1 0 0 0 0 0 0 0 0 0
Nghost:    714 ave 714 max 714 min
Histogram: 1 0 0 0 0 0 0 0 0 0
Neighs:    1024 ave 1024 max 1024 min
Histogram: 1 0 0 0 0 0 0 0 0 0

Total # of neighbors = 1024
Ave neighs/atom = 73.1429
Neighbor list builds = 99
Dangerous builds = 94


reset_timestep 0


#------ Make variables which I can use to check the pressure and temperature--------
compute         my_temp all temp
compute         mypress all pressure my_temp
variable        glpress equal "c_mypress"

fix             avepress all ave/time 1 100 100 c_mypress mode scalar ave one start 1000 #file ave.press
variable        presssq equal "v_glpress * v_glpress"
fix             avepresssq all ave/time 1 100 100 v_presssq mode scalar ave one start 1000 #file ave.presssq
variable        variance equal  "f_avepresssq - f_avepress*f_avepress"


#---------------SPECIFYING ENSEMBLE----------------------
fix 1 all nvt temp ${TEMP} ${TEMP} 1.0
fix 1 all nvt temp 1000 ${TEMP} 1.0
fix 1 all nvt temp 1000 1000 1.0


#----------------Run Simulation------------------------
# Do a short run to have data to average.
thermo          100
thermo_style    custom step temp pe etotal press lx ly lz v_variance

run 4000
Per MPI rank memory allocation (min/avg/max) = 2.972 | 2.972 | 2.972 Mbytes
Step Temp PotEng TotEng Press Lx Ly Lz v_variance 
       0            0   -22.822069   -22.822069    1921532.7      4.66784      4.66784      4.66784            0 
     100   0.17041289   -22.822356   -22.822069    1921529.4      4.66784      4.66784      4.66784            0 
     200   0.36433065   -22.822682   -22.822069    1921539.1      4.66784      4.66784      4.66784            0 
     300   0.62379299   -22.823117   -22.822069    1921577.1      4.66784      4.66784      4.66784            0 
     400   0.85333238   -22.823502   -22.822068    1921656.3      4.66784      4.66784      4.66784            0 
     500    1.0581464   -22.823845   -22.822067    1921770.8      4.66784      4.66784      4.66784            0 
     600    1.3227973   -22.824287   -22.822064    1921905.4      4.66784      4.66784      4.66784            0 
     700     1.618936   -22.824782   -22.822061    1922047.9      4.66784      4.66784      4.66784            0 
     800    2.0093906   -22.825433   -22.822057    1922183.7      4.66784      4.66784      4.66784            0 
     900    2.3344272   -22.825973    -22.82205      1922305      4.66784      4.66784      4.66784            0 
    1000    2.6252553   -22.826454   -22.822042    1922410.9      4.66784      4.66784      4.66784    924.18311 
    1100     2.739359   -22.826636   -22.822033    1922522.8      4.66784      4.66784      4.66784    1041.7739 
    1200    2.8645507   -22.826836   -22.822022    1922660.8      4.66784      4.66784      4.66784    1592.0894 
    1300    2.9010445   -22.826885    -22.82201    1922830.2      4.66784      4.66784      4.66784    2417.1177 
    1400    3.0007107   -22.827039   -22.821996    1923000.8      4.66784      4.66784      4.66784    2431.4253 
    1500    3.0916637   -22.827177   -22.821981    1923149.9      4.66784      4.66784      4.66784    1843.7036 
    1600    3.0720133   -22.827127   -22.821965    1923283.8      4.66784      4.66784      4.66784    1490.3335 
    1700    3.0549602   -22.827082   -22.821948      1923419      4.66784      4.66784      4.66784    1516.6089 
    1800    2.9312402   -22.826856   -22.821931    1923578.4      4.66784      4.66784      4.66784     2122.165 
    1900    2.8867361   -22.826763   -22.821912    1923767.5      4.66784      4.66784      4.66784    2986.7041 
    2000    2.7966524   -22.826593   -22.821894    1923985.6      4.66784      4.66784      4.66784    3985.3325 
    2100     2.724396   -22.826452   -22.821874    1924210.4      4.66784      4.66784      4.66784    4221.0498 
    2200    2.5440824    -22.82613   -22.821855      1924418      4.66784      4.66784      4.66784    3605.8203 
    2300    2.3880368   -22.825849   -22.821836    1924579.2      4.66784      4.66784      4.66784    2165.5439 
    2400    2.1851989    -22.82549   -22.821818    1924686.3      4.66784      4.66784      4.66784    950.99219 
    2500    1.9920461   -22.825148   -22.821801    1924752.8      4.66784      4.66784      4.66784    362.64893 
    2600    1.8023139   -22.824813   -22.821784    1924806.2      4.66784      4.66784      4.66784    233.43262 
    2700    1.4957675   -22.824283    -22.82177    1924871.7      4.66784      4.66784      4.66784    360.12646 
    2800    1.2855029   -22.823917   -22.821757    1924952.6      4.66784      4.66784      4.66784      543.771 
    2900   0.95265635   -22.823347   -22.821746    1925052.3      4.66784      4.66784      4.66784    840.10498 
    3000   0.74551437    -22.82299   -22.821737      1925145      4.66784      4.66784      4.66784    718.29199 
    3100   0.56695541   -22.822683   -22.821731    1925212.1      4.66784      4.66784      4.66784    377.81055 
    3200   0.44801059   -22.822478   -22.821725    1925246.3      4.66784      4.66784      4.66784     95.66748 
    3300   0.35267291   -22.822314   -22.821721      1925262      4.66784      4.66784      4.66784    19.719727 
    3400   0.27072557   -22.822172   -22.821717    1925278.1      4.66784      4.66784      4.66784    21.540039 
    3500   0.25258233   -22.822139   -22.821714    1925296.1      4.66784      4.66784      4.66784    27.783691 
    3600   0.28112004   -22.822184   -22.821711    1925302.9      4.66784      4.66784      4.66784    4.9282227 
    3700   0.42741303   -22.822425   -22.821707    1925281.1      4.66784      4.66784      4.66784    41.630371 
    3800   0.55499886   -22.822634   -22.821701      1925229      4.66784      4.66784      4.66784    227.66211 
    3900   0.74110147   -22.822938   -22.821693    1925141.4      4.66784      4.66784      4.66784     646.2915 
    4000   0.81482435   -22.823052   -22.821682    1925024.3      4.66784      4.66784      4.66784    1146.1235 
Loop time of 0.215184 on 1 procs for 4000 steps with 14 atoms

Performance: 160.607 ns/day, 0.149 hours/ns, 18588.732 timesteps/s
100.0% CPU use with 1 MPI tasks x 1 OpenMP threads

MPI task timing breakdown:
Section |  min time  |  avg time  |  max time  |%varavg| %total
---------------------------------------------------------------
Pair    | 0.19111    | 0.19111    | 0.19111    |   0.0 | 88.81
Neigh   | 0.00011634 | 0.00011634 | 0.00011634 |   0.0 |  0.05
Comm    | 0.0092842  | 0.0092842  | 0.0092842  |   0.0 |  4.31
Output  | 0.00031497 | 0.00031497 | 0.00031497 |   0.0 |  0.15
Modify  | 0.012389   | 0.012389   | 0.012389   |   0.0 |  5.76
Other   |            | 0.001968   |            |       |  0.91

Nlocal:    14 ave 14 max 14 min
Histogram: 1 0 0 0 0 0 0 0 0 0
Nghost:    714 ave 714 max 714 min
Histogram: 1 0 0 0 0 0 0 0 0 0
Neighs:    1024 ave 1024 max 1024 min
Histogram: 1 0 0 0 0 0 0 0 0 0

Total # of neighbors = 1024
Ave neighs/atom = 73.1429
Neighbor list builds = 5
Dangerous builds = 0


# Begin lopping until the variance in the pressure is below a given value

variable        loopNum loop 1000

label           loop
if              "${variance} > 1000" then "run 2000" "next loopNum" "jump SELF loop" else "print 'continue'"
run 2000
Per MPI rank memory allocation (min/avg/max) = 2.972 | 2.972 | 2.972 Mbytes
Step Temp PotEng TotEng Press Lx Ly Lz v_variance 
    4000   0.81482435   -22.823052   -22.821682    1925024.3      4.66784      4.66784      4.66784    1146.1235 
    4100    1.0395294   -22.823417    -22.82167    1924884.6      4.66784      4.66784      4.66784    1646.7803 
    4200    1.2362726   -22.823732   -22.821654    1924762.1      4.66784      4.66784      4.66784    1257.6182 
    4300    1.4402197   -22.824056   -22.821636    1924681.9      4.66784      4.66784      4.66784    532.15967 
    4400    1.6743995   -22.824427   -22.821614    1924635.8      4.66784      4.66784      4.66784    173.62305 
    4500    1.8162754   -22.824641   -22.821589    1924593.6      4.66784      4.66784      4.66784    144.46143 
    4600    2.0177939   -22.824951   -22.821561    1924517.7      4.66784      4.66784      4.66784    487.28857 
    4700    2.1869414   -22.825204    -22.82153    1924409.3      4.66784      4.66784      4.66784    985.40479 
    4800    2.4794065   -22.825661   -22.821495    1924281.8      4.66784      4.66784      4.66784    1363.0337 
    4900      2.74025   -22.826059   -22.821455    1924150.9      4.66784      4.66784      4.66784    1422.7944 
    5000    3.0489588   -22.826534    -22.82141      1924014      4.66784      4.66784      4.66784    1564.7725 
    5100    3.1990055   -22.826737   -22.821361    1923877.3      4.66784      4.66784      4.66784    1558.6182 
    5200    3.3199769   -22.826889    -22.82131    1923745.2      4.66784      4.66784      4.66784    1449.2329 
    5300     3.413311   -22.826992   -22.821256    1923606.5      4.66784      4.66784      4.66784     1593.937 
    5400    3.5335666   -22.827139   -22.821201    1923440.8      4.66784      4.66784      4.66784    2291.2622 
    5500     3.752557   -22.827448   -22.821142    1923251.2      4.66784      4.66784      4.66784    3030.2188 
    5600    3.7587419   -22.827397   -22.821081    1923086.2      4.66784      4.66784      4.66784    2284.7578 
    5700    3.6848842   -22.827213   -22.821021    1922974.4      4.66784      4.66784      4.66784    1031.9683 
    5800    3.3757088   -22.826635   -22.820963    1922887.5      4.66784      4.66784      4.66784    608.11279 
    5900    3.0978249   -22.826115    -22.82091    1922761.2      4.66784      4.66784      4.66784    1339.5503 
    6000    2.8466127   -22.825645   -22.820861    1922592.9      4.66784      4.66784      4.66784    2362.3408 
Loop time of 0.108553 on 1 procs for 2000 steps with 14 atoms

Performance: 159.185 ns/day, 0.151 hours/ns, 18424.174 timesteps/s
100.0% CPU use with 1 MPI tasks x 1 OpenMP threads

MPI task timing breakdown:
Section |  min time  |  avg time  |  max time  |%varavg| %total
---------------------------------------------------------------
Pair    | 0.095051   | 0.095051   | 0.095051   |   0.0 | 87.56
Neigh   | 9.2626e-05 | 9.2626e-05 | 9.2626e-05 |   0.0 |  0.09
Comm    | 0.004619   | 0.004619   | 0.004619   |   0.0 |  4.26
Output  | 0.00013741 | 0.00013741 | 0.00013741 |   0.0 |  0.13
Modify  | 0.0076579  | 0.0076579  | 0.0076579  |   0.0 |  7.05
Other   |            | 0.0009949  |            |       |  0.92

Nlocal:    14 ave 14 max 14 min
Histogram: 1 0 0 0 0 0 0 0 0 0
Nghost:    714 ave 714 max 714 min
Histogram: 1 0 0 0 0 0 0 0 0 0
Neighs:    1024 ave 1024 max 1024 min
Histogram: 1 0 0 0 0 0 0 0 0 0

Total # of neighbors = 1024
Ave neighs/atom = 73.1429
Neighbor list builds = 4
Dangerous builds = 0
next loopNum
jump SELF loop
if              "${variance} > 1000" then "run 2000" "next loopNum" "jump SELF loop" else "print 'continue'"
run 2000
Per MPI rank memory allocation (min/avg/max) = 2.972 | 2.972 | 2.972 Mbytes
Step Temp PotEng TotEng Press Lx Ly Lz v_variance 
    6000    2.8466127   -22.825645   -22.820861    1922592.9      4.66784      4.66784      4.66784    2362.3408 
    6100     2.631015   -22.825237   -22.820816    1922396.4      4.66784      4.66784      4.66784    3223.8599 
    6200    2.3594884    -22.82474   -22.820775    1922187.9      4.66784      4.66784      4.66784    3631.9443 
    6300    2.0161003   -22.824127   -22.820739    1921985.1      4.66784      4.66784      4.66784    3439.2686 
    6400     1.611754   -22.823418   -22.820709    1921808.8      4.66784      4.66784      4.66784    2599.9243 
    6500    1.1873042   -22.822682   -22.820687    1921676.3      4.66784      4.66784      4.66784    1458.4121 
    6600   0.93224928   -22.822236   -22.820669    1921584.7      4.66784      4.66784      4.66784    697.01514 
    6700   0.69978867   -22.821832   -22.820656    1921521.5      4.66784      4.66784      4.66784    324.21484 
    6800    0.7051832    -22.82183   -22.820645    1921457.2      4.66784      4.66784      4.66784    348.07861 
    6900   0.61480248   -22.821668   -22.820634    1921396.9      4.66784      4.66784      4.66784    302.51758 
    7000   0.60320723   -22.821639   -22.820625    1921346.1      4.66784      4.66784      4.66784    217.50488 
    7100   0.65063921   -22.821708   -22.820615    1921316.9      4.66784      4.66784      4.66784    71.508301 
    7200   0.72785174   -22.821827   -22.820604    1921315.8      4.66784      4.66784      4.66784   0.83154297 
    7300   0.94913376   -22.822186   -22.820591    1921343.5      4.66784      4.66784      4.66784    64.933594 
    7400     1.154359   -22.822515   -22.820575    1921410.2      4.66784      4.66784      4.66784     377.8252 
    7500    1.4613934   -22.823011   -22.820555    1921501.9      4.66784      4.66784      4.66784    705.35889 
    7600    1.7175645   -22.823417   -22.820531    1921606.7      4.66784      4.66784      4.66784    920.90332 
    7700     2.057173   -22.823959   -22.820502      1921716      4.66784      4.66784      4.66784    990.23193 
    7800    2.2853305    -22.82431    -22.82047      1921841      4.66784      4.66784      4.66784    1304.7549 
    7900    2.5532988   -22.824725   -22.820434    1921986.6      4.66784      4.66784      4.66784    1763.6992 
    8000    2.7834494   -22.825072   -22.820395    1922155.6      4.66784      4.66784      4.66784    2395.4775 
Loop time of 0.110153 on 1 procs for 2000 steps with 14 atoms

Performance: 156.872 ns/day, 0.153 hours/ns, 18156.482 timesteps/s
100.0% CPU use with 1 MPI tasks x 1 OpenMP threads

MPI task timing breakdown:
Section |  min time  |  avg time  |  max time  |%varavg| %total
---------------------------------------------------------------
Pair    | 0.096621   | 0.096621   | 0.096621   |   0.0 | 87.72
Neigh   | 5.1761e-05 | 5.1761e-05 | 5.1761e-05 |   0.0 |  0.05
Comm    | 0.0045565  | 0.0045565  | 0.0045565  |   0.0 |  4.14
Output  | 0.00015055 | 0.00015055 | 0.00015055 |   0.0 |  0.14
Modify  | 0.0078023  | 0.0078023  | 0.0078023  |   0.0 |  7.08
Other   |            | 0.0009709  |            |       |  0.88

Nlocal:    14 ave 14 max 14 min
Histogram: 1 0 0 0 0 0 0 0 0 0
Nghost:    714 ave 714 max 714 min
Histogram: 1 0 0 0 0 0 0 0 0 0
Neighs:    1024 ave 1024 max 1024 min
Histogram: 1 0 0 0 0 0 0 0 0 0

Total # of neighbors = 1024
Ave neighs/atom = 73.1429
Neighbor list builds = 2
Dangerous builds = 0
next loopNum
jump SELF loop
if              "${variance} > 1000" then "run 2000" "next loopNum" "jump SELF loop" else "print 'continue'"
run 2000
Per MPI rank memory allocation (min/avg/max) = 2.972 | 2.972 | 2.972 Mbytes
Step Temp PotEng TotEng Press Lx Ly Lz v_variance 
    8000    2.7834494   -22.825072   -22.820395    1922155.6      4.66784      4.66784      4.66784    2395.4775 
    8100    3.0791077   -22.825527   -22.820353    1922338.9      4.66784      4.66784      4.66784    2793.6367 
    8200    3.4089382   -22.826034   -22.820306    1922550.1      4.66784      4.66784      4.66784    3719.6284 
    8300    3.6000664   -22.826306   -22.820256    1922794.6      4.66784      4.66784      4.66784    5045.3213 
    8400    3.8578832   -22.826686   -22.820204    1923023.7      4.66784      4.66784      4.66784    4387.2422 
    8500    3.9769924   -22.826832   -22.820149    1923211.4      4.66784      4.66784      4.66784    2937.8345 
    8600    4.1599528   -22.827083   -22.820093    1923359.1      4.66784      4.66784      4.66784    1781.7607 
    8700    4.2143377   -22.827117   -22.820036    1923519.7      4.66784      4.66784      4.66784    2143.3896 
    8800    4.1868081   -22.827014   -22.819979      1923722      4.66784      4.66784      4.66784    3421.4834 
    8900    4.0411483   -22.826714   -22.819923    1923955.5      4.66784      4.66784      4.66784    4574.5239 
    9000    3.9004544   -22.826425   -22.819871    1924189.6      4.66784      4.66784      4.66784    4568.4448 
    9100    3.6945369   -22.826029    -22.81982    1924412.5      4.66784      4.66784      4.66784    4137.0796 
    9200    3.4050921   -22.825496   -22.819774      1924624      4.66784      4.66784      4.66784    3730.7314 
    9300    3.0632437   -22.824879   -22.819732    1924820.6      4.66784      4.66784      4.66784    3217.7407 
    9400    2.5437734    -22.82397   -22.819696    1924996.8      4.66784      4.66784      4.66784    2597.9229 
    9500    2.2353841   -22.823421   -22.819665    1925136.8      4.66784      4.66784      4.66784    1614.9648 
    9600    1.8775588   -22.822794   -22.819639    1925262.3      4.66784      4.66784      4.66784    1316.5947 
    9700    1.6974766   -22.822469   -22.819617    1925367.9      4.66784      4.66784      4.66784    930.37793 
    9800    1.4694445   -22.822066   -22.819596    1925435.6      4.66784      4.66784      4.66784    387.90967 
    9900    1.2431965   -22.821669    -22.81958    1925441.5      4.66784      4.66784      4.66784    9.5429688 
   10000    1.1268425   -22.821458   -22.819565    1925393.4      4.66784      4.66784      4.66784    202.54102 
Loop time of 0.109253 on 1 procs for 2000 steps with 14 atoms

Performance: 158.164 ns/day, 0.152 hours/ns, 18306.068 timesteps/s
100.0% CPU use with 1 MPI tasks x 1 OpenMP threads

MPI task timing breakdown:
Section |  min time  |  avg time  |  max time  |%varavg| %total
---------------------------------------------------------------
Pair    | 0.095801   | 0.095801   | 0.095801   |   0.0 | 87.69
Neigh   | 9.3221e-05 | 9.3221e-05 | 9.3221e-05 |   0.0 |  0.09
Comm    | 0.0046409  | 0.0046409  | 0.0046409  |   0.0 |  4.25
Output  | 0.00014047 | 0.00014047 | 0.00014047 |   0.0 |  0.13
Modify  | 0.0076181  | 0.0076181  | 0.0076181  |   0.0 |  6.97
Other   |            | 0.0009594  |            |       |  0.88

Nlocal:    14 ave 14 max 14 min
Histogram: 1 0 0 0 0 0 0 0 0 0
Nghost:    714 ave 714 max 714 min
Histogram: 1 0 0 0 0 0 0 0 0 0
Neighs:    1024 ave 1024 max 1024 min
Histogram: 1 0 0 0 0 0 0 0 0 0

Total # of neighbors = 1024
Ave neighs/atom = 73.1429
Neighbor list builds = 4
Dangerous builds = 0
next loopNum
jump SELF loop
if              "${variance} > 1000" then "run 2000" "next loopNum" "jump SELF loop" else "print 'continue'"
print 'continue'
continue



unfix		 avepress
unfix		 avepresssq
thermo 100
thermo_style custom step vol lx ly lz press
reset_timestep 0
shell echo ${loopNum}  > loopNum${SIMNUM}${SCALE}.txt
shell echo 4  > loopNum${SIMNUM}${SCALE}.txt
shell echo 4  > loopNum2${SCALE}.txt
shell echo 4  > loopNum21.006.txt
run 		${RUNNUMBER}
run 		500000
Per MPI rank memory allocation (min/avg/max) = 2.972 | 2.972 | 2.972 Mbytes
Step Volume Lx Ly Lz Press 
       0    101.70631      4.66784      4.66784      4.66784    1925393.4 
     100    101.70631      4.66784      4.66784      4.66784    1925336.5 
     200    101.70631      4.66784      4.66784      4.66784    1925305.3 
     300    101.70631      4.66784      4.66784      4.66784    1925310.4 
     400    101.70631      4.66784      4.66784      4.66784      1925326 
     500    101.70631      4.66784      4.66784      4.66784    1925324.8 
     600    101.70631      4.66784      4.66784      4.66784    1925279.5 
     700    101.70631      4.66784      4.66784      4.66784    1925196.6 
     800    101.70631      4.66784      4.66784      4.66784    1925090.1 
     900    101.70631      4.66784      4.66784      4.66784    1924998.9 
    1000    101.70631      4.66784      4.66784      4.66784    1924945.9 
    1100    101.70631      4.66784      4.66784      4.66784    1924915.1 
    1200    101.70631      4.66784      4.66784      4.66784    1924877.6 
    1300    101.70631      4.66784      4.66784      4.66784    1924792.7 
    1400    101.70631      4.66784      4.66784      4.66784    1924668.3 
    1500    101.70631      4.66784      4.66784      4.66784    1924532.7 
    1600    101.70631      4.66784      4.66784      4.66784      1924422 
    1700    101.70631      4.66784      4.66784      4.66784      1924348 
    1800    101.70631      4.66784      4.66784      4.66784    1924311.2 
    1900    101.70631      4.66784      4.66784      4.66784    1924279.6 
    2000    101.70631      4.66784      4.66784      4.66784    1924218.8 
    2100    101.70631      4.66784      4.66784      4.66784    1924117.1 
    2200    101.70631      4.66784      4.66784      4.66784    1923978.7 
    2300    101.70631      4.66784      4.66784      4.66784    1923836.1 
    2400    101.70631      4.66784      4.66784      4.66784    1923694.2 
    2500    101.70631      4.66784      4.66784      4.66784      1923579 
    2600    101.70631      4.66784      4.66784      4.66784    1923475.7 
    2700    101.70631      4.66784      4.66784      4.66784    1923351.1 
    2800    101.70631      4.66784      4.66784      4.66784    1923171.1 
    2900    101.70631      4.66784      4.66784      4.66784    1922941.6 
    3000    101.70631      4.66784      4.66784      4.66784    1922689.7 
    3100    101.70631      4.66784      4.66784      4.66784      1922423 
    3200    101.70631      4.66784      4.66784      4.66784    1922164.6 
    3300    101.70631      4.66784      4.66784      4.66784      1921924 
    3400    101.70631      4.66784      4.66784      4.66784    1921715.7 
    3500    101.70631      4.66784      4.66784      4.66784    1921528.5 
    3600    101.70631      4.66784      4.66784      4.66784    1921377.2 
    3700    101.70631      4.66784      4.66784      4.66784    1921263.2 
    3800    101.70631      4.66784      4.66784      4.66784    1921182.8 
    3900    101.70631      4.66784      4.66784      4.66784    1921132.5 
    4000    101.70631      4.66784      4.66784      4.66784    1921106.9 
    4100    101.70631      4.66784      4.66784      4.66784    1921117.9 
    4200    101.70631      4.66784      4.66784      4.66784    1921153.5 
    4300    101.70631      4.66784      4.66784      4.66784    1921196.9 
    4400    101.70631      4.66784      4.66784      4.66784    1921231.2 
    4500    101.70631      4.66784      4.66784      4.66784    1921272.5 
    4600    101.70631      4.66784      4.66784      4.66784    1921338.3 
    4700    101.70631      4.66784      4.66784      4.66784    1921450.3 
    4800    101.70631      4.66784      4.66784      4.66784    1921611.2 
    4900    101.70631      4.66784      4.66784      4.66784    1921813.4 
    5000    101.70631      4.66784      4.66784      4.66784    1922060.6 
    5100    101.70631      4.66784      4.66784      4.66784    1922313.9 
    5200    101.70631      4.66784      4.66784      4.66784    1922555.1 
    5300    101.70631      4.66784      4.66784      4.66784    1922770.9 
    5400    101.70631      4.66784      4.66784      4.66784    1922994.4 
    5500    101.70631      4.66784      4.66784      4.66784    1923252.2 
    5600    101.70631      4.66784      4.66784      4.66784    1923552.1 
    5700    101.70631      4.66784      4.66784      4.66784    1923866.5 
    5800    101.70631      4.66784      4.66784      4.66784    1924131.8 
    5900    101.70631      4.66784      4.66784      4.66784    1924331.5 
    6000    101.70631      4.66784      4.66784      4.66784    1924490.6 
    6100    101.70631      4.66784      4.66784      4.66784    1924654.2 
    6200    101.70631      4.66784      4.66784      4.66784    1924838.1 
    6300    101.70631      4.66784      4.66784      4.66784    1925061.2 
    6400    101.70631      4.66784      4.66784      4.66784    1925288.1 
    6500    101.70631      4.66784      4.66784      4.66784    1925469.3 
    6600    101.70631      4.66784      4.66784      4.66784    1925559.6 
    6700    101.70631      4.66784      4.66784      4.66784    1925553.3 
    6800    101.70631      4.66784      4.66784      4.66784    1925498.2 
    6900    101.70631      4.66784      4.66784      4.66784    1925438.6 
    7000    101.70631      4.66784      4.66784      4.66784    1925411.5 
    7100    101.70631      4.66784      4.66784      4.66784    1925405.5 
    7200    101.70631      4.66784      4.66784      4.66784    1925398.1 
    7300    101.70631      4.66784      4.66784      4.66784    1925353.3 
    7400    101.70631      4.66784      4.66784      4.66784    1925259.3 
    7500    101.70631      4.66784      4.66784      4.66784      1925123 
    7600    101.70631      4.66784      4.66784      4.66784    1924992.2 
    7700    101.70631      4.66784      4.66784      4.66784    1924918.4 
    7800    101.70631      4.66784      4.66784      4.66784      1924894 
    7900    101.70631      4.66784      4.66784      4.66784    1924890.9 
    8000    101.70631      4.66784      4.66784      4.66784    1924862.3 
    8100    101.70631      4.66784      4.66784      4.66784    1924816.4 
    8200    101.70631      4.66784      4.66784      4.66784      1924769 
    8300    101.70631      4.66784      4.66784      4.66784    1924741.9 
    8400    101.70631      4.66784      4.66784      4.66784    1924729.9 
    8500    101.70631      4.66784      4.66784      4.66784    1924725.4 
    8600    101.70631      4.66784      4.66784      4.66784    1924722.9 
    8700    101.70631      4.66784      4.66784      4.66784    1924718.5 
    8800    101.70631      4.66784      4.66784      4.66784    1924697.2 
    8900    101.70631      4.66784      4.66784      4.66784    1924621.8 
    9000    101.70631      4.66784      4.66784      4.66784    1924525.2 
    9100    101.70631      4.66784      4.66784      4.66784    1924429.9 
    9200    101.70631      4.66784      4.66784      4.66784    1924332.7 
    9300    101.70631      4.66784      4.66784      4.66784    1924208.3 
    9400    101.70631      4.66784      4.66784      4.66784    1924096.7 
    9500    101.70631      4.66784      4.66784      4.66784    1923990.7 
    9600    101.70631      4.66784      4.66784      4.66784    1923836.2 
    9700    101.70631      4.66784      4.66784      4.66784    1923623.9 
    9800    101.70631      4.66784      4.66784      4.66784    1923364.6 
    9900    101.70631      4.66784      4.66784      4.66784    1923086.2 
   10000    101.70631      4.66784      4.66784      4.66784    1922800.1 
   10100    101.70631      4.66784      4.66784      4.66784    1922520.5 
   10200    101.70631      4.66784      4.66784      4.66784    1922235.5 
   10300    101.70631      4.66784      4.66784      4.66784    1921960.9 
   10400    101.70631      4.66784      4.66784      4.66784    1921689.9 
   10500    101.70631      4.66784      4.66784      4.66784      1921419 
   10600    101.70631      4.66784      4.66784      4.66784    1921159.5 
   10700    101.70631      4.66784      4.66784      4.66784    1920927.8 
   10800    101.70631      4.66784      4.66784      4.66784    1920783.7 
   10900    101.70631      4.66784      4.66784      4.66784    1920735.7 
   11000    101.70631      4.66784      4.66784      4.66784    1920768.6 
   11100    101.70631      4.66784      4.66784      4.66784    1920826.2 
   11200    101.70631      4.66784      4.66784      4.66784    1920875.2 
   11300    101.70631      4.66784      4.66784      4.66784    1920910.7 
   11400    101.70631      4.66784      4.66784      4.66784    1920969.9 
   11500    101.70631      4.66784      4.66784      4.66784    1921081.6 
   11600    101.70631      4.66784      4.66784      4.66784    1921251.8 
   11700    101.70631      4.66784      4.66784      4.66784    1921480.4 
   11800    101.70631      4.66784      4.66784      4.66784    1921705.2 
   11900    101.70631      4.66784      4.66784      4.66784    1921895.7 
   12000    101.70631      4.66784      4.66784      4.66784    1922043.1 
   12100    101.70631      4.66784      4.66784      4.66784    1922202.8 
   12200    101.70631      4.66784      4.66784      4.66784      1922440 
   12300    101.70631      4.66784      4.66784      4.66784    1922761.9 
   12400    101.70631      4.66784      4.66784      4.66784    1923129.6 
   12500    101.70631      4.66784      4.66784      4.66784    1923481.8 
   12600    101.70631      4.66784      4.66784      4.66784    1923809.5 
   12700    101.70631      4.66784      4.66784      4.66784    1924086.1 
   12800    101.70631      4.66784      4.66784      4.66784    1924330.6 
   12900    101.70631      4.66784      4.66784      4.66784    1924551.9 
   13000    101.70631      4.66784      4.66784      4.66784      1924792 
   13100    101.70631      4.66784      4.66784      4.66784      1925047 
   13200    101.70631      4.66784      4.66784      4.66784    1925272.8 
   13300    101.70631      4.66784      4.66784      4.66784    1925419.3 
   13400    101.70631      4.66784      4.66784      4.66784    1925466.9 
   13500    101.70631      4.66784      4.66784      4.66784    1925475.3 
   13600    101.70631      4.66784      4.66784      4.66784    1925478.7 
   13700    101.70631      4.66784      4.66784      4.66784    1925492.2 
   13800    101.70631      4.66784      4.66784      4.66784    1925485.2 
   13900    101.70631      4.66784      4.66784      4.66784    1925458.1 
   14000    101.70631      4.66784      4.66784      4.66784    1925405.9 
   14100    101.70631      4.66784      4.66784      4.66784    1925331.2 
   14200    101.70631      4.66784      4.66784      4.66784    1925231.7 
   14300    101.70631      4.66784      4.66784      4.66784    1925127.9 
   14400    101.70631      4.66784      4.66784      4.66784    1925058.9 
   14500    101.70631      4.66784      4.66784      4.66784    1925022.2 
   14600    101.70631      4.66784      4.66784      4.66784    1925018.3 
   14700    101.70631      4.66784      4.66784      4.66784    1925005.1 
   14800    101.70631      4.66784      4.66784      4.66784    1924987.4 
   14900    101.70631      4.66784      4.66784      4.66784    1924965.2 
   15000    101.70631      4.66784      4.66784      4.66784      1924935 
   15100    101.70631      4.66784      4.66784      4.66784    1924903.2 
   15200    101.70631      4.66784      4.66784      4.66784    1924892.1 
   15300    101.70631      4.66784      4.66784      4.66784    1924934.5 
   15400    101.70631      4.66784      4.66784      4.66784    1925026.4 
   15500    101.70631      4.66784      4.66784      4.66784    1925130.5 
   15600    101.70631      4.66784      4.66784      4.66784    1925209.3 
   15700    101.70631      4.66784      4.66784      4.66784    1925283.3 
   15800    101.70631      4.66784      4.66784      4.66784      1925319 
   15900    101.70631      4.66784      4.66784      4.66784    1925300.3 
   16000    101.70631      4.66784      4.66784      4.66784    1925221.9 
   16100    101.70631      4.66784      4.66784      4.66784    1925099.1 
   16200    101.70631      4.66784      4.66784      4.66784    1924948.4 
   16300    101.70631      4.66784      4.66784      4.66784    1924780.2 
   16400    101.70631      4.66784      4.66784      4.66784    1924617.3 
   16500    101.70631      4.66784      4.66784      4.66784    1924394.1 
   16600    101.70631      4.66784      4.66784      4.66784      1924106 
   16700    101.70631      4.66784      4.66784      4.66784    1923786.5 
   16800    101.70631      4.66784      4.66784      4.66784    1923484.1 
   16900    101.70631      4.66784      4.66784      4.66784    1923218.4 
   17000    101.70631      4.66784      4.66784      4.66784    1922988.3 
   17100    101.70631      4.66784      4.66784      4.66784    1922741.3 
   17200    101.70631      4.66784      4.66784      4.66784    1922434.2 
   17300    101.70631      4.66784      4.66784      4.66784    1922068.5 
   17400    101.70631      4.66784      4.66784      4.66784    1921660.8 
   17500    101.70631      4.66784      4.66784      4.66784      1921297 
   17600    101.70631      4.66784      4.66784      4.66784      1921026 
   17700    101.70631      4.66784      4.66784      4.66784    1920837.3 
   17800    101.70631      4.66784      4.66784      4.66784    1920686.4 
   17900    101.70631      4.66784      4.66784      4.66784    1920553.9 
   18000    101.70631      4.66784      4.66784      4.66784    1920459.4 
   18100    101.70631      4.66784      4.66784      4.66784    1920426.3 
   18200    101.70631      4.66784      4.66784      4.66784      1920468 
   18300    101.70631      4.66784      4.66784      4.66784    1920577.4 
   18400    101.70631      4.66784      4.66784      4.66784    1920766.6 
   18500    101.70631      4.66784      4.66784      4.66784    1920972.1 
   18600    101.70631      4.66784      4.66784      4.66784      1921173 
   18700    101.70631      4.66784      4.66784      4.66784    1921348.7 
   18800    101.70631      4.66784      4.66784      4.66784      1921530 
   18900    101.70631      4.66784      4.66784      4.66784    1921770.5 
   19000    101.70631      4.66784      4.66784      4.66784    1922085.3 
   19100    101.70631      4.66784      4.66784      4.66784    1922444.4 
   19200    101.70631      4.66784      4.66784      4.66784    1922793.4 
   19300    101.70631      4.66784      4.66784      4.66784    1923101.4 
   19400    101.70631      4.66784      4.66784      4.66784    1923361.7 
   19500    101.70631      4.66784      4.66784      4.66784    1923625.7 
   19600    101.70631      4.66784      4.66784      4.66784    1923900.2 
   19700    101.70631      4.66784      4.66784      4.66784    1924187.1 
   19800    101.70631      4.66784      4.66784      4.66784    1924482.4 
   19900    101.70631      4.66784      4.66784      4.66784      1924744 
   20000    101.70631      4.66784      4.66784      4.66784    1924959.8 
   20100    101.70631      4.66784      4.66784      4.66784    1925117.2 
   20200    101.70631      4.66784      4.66784      4.66784    1925258.7 
   20300    101.70631      4.66784      4.66784      4.66784    1925368.9 
   20400    101.70631      4.66784      4.66784      4.66784    1925465.8 
   20500    101.70631      4.66784      4.66784      4.66784    1925551.4 
   20600    101.70631      4.66784      4.66784      4.66784    1925621.2 
   20700    101.70631      4.66784      4.66784      4.66784    1925649.5 
   20800    101.70631      4.66784      4.66784      4.66784      1925624 
   20900    101.70631      4.66784      4.66784      4.66784    1925514.7 
   21000    101.70631      4.66784      4.66784      4.66784    1925341.8 
   21100    101.70631      4.66784      4.66784      4.66784    1925186.7 
   21200    101.70631      4.66784      4.66784      4.66784    1925077.9 
   21300    101.70631      4.66784      4.66784      4.66784    1925069.3 
   21400    101.70631      4.66784      4.66784      4.66784    1925101.5 
   21500    101.70631      4.66784      4.66784      4.66784    1925143.8 
   21600    101.70631      4.66784      4.66784      4.66784    1925195.1 
   21700    101.70631      4.66784      4.66784      4.66784      1925237 
   21800    101.70631      4.66784      4.66784      4.66784    1925262.9 
   21900    101.70631      4.66784      4.66784      4.66784    1925274.3 
   22000    101.70631      4.66784      4.66784      4.66784    1925319.6 
   22100    101.70631      4.66784      4.66784      4.66784    1925418.1 
   22200    101.70631      4.66784      4.66784      4.66784    1925572.4 
   22300    101.70631      4.66784      4.66784      4.66784    1925724.5 
   22400    101.70631      4.66784      4.66784      4.66784    1925853.2 
   22500    101.70631      4.66784      4.66784      4.66784    1925905.6 
   22600    101.70631      4.66784      4.66784      4.66784    1925884.9 
   22700    101.70631      4.66784      4.66784      4.66784    1925838.1 
   22800    101.70631      4.66784      4.66784      4.66784    1925804.1 
   22900    101.70631      4.66784      4.66784      4.66784    1925824.1 
   23000    101.70631      4.66784      4.66784      4.66784    1925856.1 
   23100    101.70631      4.66784      4.66784      4.66784    1925836.2 
   23200    101.70631      4.66784      4.66784      4.66784      1925670 
   23300    101.70631      4.66784      4.66784      4.66784    1925373.9 
   23400    101.70631      4.66784      4.66784      4.66784    1925019.4 
   23500    101.70631      4.66784      4.66784      4.66784    1924676.8 
   23600    101.70631      4.66784      4.66784      4.66784    1924350.5 
   23700    101.70631      4.66784      4.66784      4.66784    1924051.3 
   23800    101.70631      4.66784      4.66784      4.66784    1923777.3 
   23900    101.70631      4.66784      4.66784      4.66784    1923470.7 
   24000    101.70631      4.66784      4.66784      4.66784    1923134.3 
   24100    101.70631      4.66784      4.66784      4.66784    1922713.9 
   24200    101.70631      4.66784      4.66784      4.66784    1922311.7 
   24300    101.70631      4.66784      4.66784      4.66784    1921975.4 
   24400    101.70631      4.66784      4.66784      4.66784    1921712.4 
   24500    101.70631      4.66784      4.66784      4.66784    1921460.7 
   24600    101.70631      4.66784      4.66784      4.66784    1921165.2 
   24700    101.70631      4.66784      4.66784      4.66784    1920858.1 
   24800    101.70631      4.66784      4.66784      4.66784    1920594.8 
   24900    101.70631      4.66784      4.66784      4.66784    1920389.5 
   25000    101.70631      4.66784      4.66784      4.66784    1920249.2 
   25100    101.70631      4.66784      4.66784      4.66784    1920221.5 
   25200    101.70631      4.66784      4.66784      4.66784    1920294.3 
   25300    101.70631      4.66784      4.66784      4.66784    1920439.9 
   25400    101.70631      4.66784      4.66784      4.66784      1920608 
   25500    101.70631      4.66784      4.66784      4.66784    1920776.5 
   25600    101.70631      4.66784      4.66784      4.66784    1921002.1 
   25700    101.70631      4.66784      4.66784      4.66784    1921280.1 
   25800    101.70631      4.66784      4.66784      4.66784    1921609.9 
   25900    101.70631      4.66784      4.66784      4.66784    1921951.2 
   26000    101.70631      4.66784      4.66784      4.66784    1922312.8 
   26100    101.70631      4.66784      4.66784      4.66784    1922689.9 
   26200    101.70631      4.66784      4.66784      4.66784      1923076 
   26300    101.70631      4.66784      4.66784      4.66784    1923411.2 
   26400    101.70631      4.66784      4.66784      4.66784    1923708.6 
   26500    101.70631      4.66784      4.66784      4.66784    1923970.7 
   26600    101.70631      4.66784      4.66784      4.66784    1924203.8 
   26700    101.70631      4.66784      4.66784      4.66784    1924438.3 
   26800    101.70631      4.66784      4.66784      4.66784    1924617.8 
   26900    101.70631      4.66784      4.66784      4.66784      1924756 
   27000    101.70631      4.66784      4.66784      4.66784    1924877.6 
   27100    101.70631      4.66784      4.66784      4.66784    1925031.3 
   27200    101.70631      4.66784      4.66784      4.66784      1925190 
   27300    101.70631      4.66784      4.66784      4.66784    1925326.2 
   27400    101.70631      4.66784      4.66784      4.66784    1925498.9 
   27500    101.70631      4.66784      4.66784      4.66784    1925724.5 
   27600    101.70631      4.66784      4.66784      4.66784    1925958.6 
   27700    101.70631      4.66784      4.66784      4.66784    1926109.6 
   27800    101.70631      4.66784      4.66784      4.66784    1926141.1 
   27900    101.70631      4.66784      4.66784      4.66784    1926009.9 
   28000    101.70631      4.66784      4.66784      4.66784    1925813.4 
   28100    101.70631      4.66784      4.66784      4.66784    1925609.5 
   28200    101.70631      4.66784      4.66784      4.66784    1925456.9 
   28300    101.70631      4.66784      4.66784      4.66784    1925384.7 
   28400    101.70631      4.66784      4.66784      4.66784    1925350.8 
   28500    101.70631      4.66784      4.66784      4.66784    1925370.8 
   28600    101.70631      4.66784      4.66784      4.66784    1925426.8 
   28700    101.70631      4.66784      4.66784      4.66784    1925554.3 
   28800    101.70631      4.66784      4.66784      4.66784    1925751.4 
   28900    101.70631      4.66784      4.66784      4.66784    1926011.5 
   29000    101.70631      4.66784      4.66784      4.66784    1926267.4 
   29100    101.70631      4.66784      4.66784      4.66784    1926502.9 
   29200    101.70631      4.66784      4.66784      4.66784      1926663 
   29300    101.70631      4.66784      4.66784      4.66784      1926727 
   29400    101.70631      4.66784      4.66784      4.66784    1926749.9 
   29500    101.70631      4.66784      4.66784      4.66784    1926726.9 
   29600    101.70631      4.66784      4.66784      4.66784    1926691.4 
   29700    101.70631      4.66784      4.66784      4.66784    1926596.9 
   29800    101.70631      4.66784      4.66784      4.66784      1926464 
   29900    101.70631      4.66784      4.66784      4.66784    1926276.3 
   30000    101.70631      4.66784      4.66784      4.66784    1926052.8 
   30100    101.70631      4.66784      4.66784      4.66784    1925819.2 
   30200    101.70631      4.66784      4.66784      4.66784    1925597.7 
   30300    101.70631      4.66784      4.66784      4.66784    1925388.3 
   30400    101.70631      4.66784      4.66784      4.66784      1925166 
   30500    101.70631      4.66784      4.66784      4.66784    1924939.2 
   30600    101.70631      4.66784      4.66784      4.66784    1924637.5 
   30700    101.70631      4.66784      4.66784      4.66784    1924288.2 
   30800    101.70631      4.66784      4.66784      4.66784    1923916.1 
   30900    101.70631      4.66784      4.66784      4.66784    1923563.8 
   31000    101.70631      4.66784      4.66784      4.66784      1923226 
   31100    101.70631      4.66784      4.66784      4.66784    1922894.5 
   31200    101.70631      4.66784      4.66784      4.66784    1922555.4 
   31300    101.70631      4.66784      4.66784      4.66784    1922144.6 
   31400    101.70631      4.66784      4.66784      4.66784    1921724.9 
   31500    101.70631      4.66784      4.66784      4.66784    1921271.8 
   31600    101.70631      4.66784      4.66784      4.66784      1920820 
   31700    101.70631      4.66784      4.66784      4.66784    1920393.1 
   31800    101.70631      4.66784      4.66784      4.66784    1920100.8 
   31900    101.70631      4.66784      4.66784      4.66784    1919955.1 
   32000    101.70631      4.66784      4.66784      4.66784    1919948.5 
   32100    101.70631      4.66784      4.66784      4.66784    1920056.4 
   32200    101.70631      4.66784      4.66784      4.66784    1920249.4 
   32300    101.70631      4.66784      4.66784      4.66784    1920584.4 
   32400    101.70631      4.66784      4.66784      4.66784    1920975.8 
   32500    101.70631      4.66784      4.66784      4.66784    1921393.7 
   32600    101.70631      4.66784      4.66784      4.66784    1921760.6 
   32700    101.70631      4.66784      4.66784      4.66784    1922076.2 
   32800    101.70631      4.66784      4.66784      4.66784    1922362.9 
   32900    101.70631      4.66784      4.66784      4.66784    1922638.1 
   33000    101.70631      4.66784      4.66784      4.66784    1922877.7 
   33100    101.70631      4.66784      4.66784      4.66784    1923087.9 
   33200    101.70631      4.66784      4.66784      4.66784    1923310.9 
   33300    101.70631      4.66784      4.66784      4.66784    1923543.4 
   33400    101.70631      4.66784      4.66784      4.66784    1923854.7 
   33500    101.70631      4.66784      4.66784      4.66784    1924138.8 
   33600    101.70631      4.66784      4.66784      4.66784    1924449.5 
   33700    101.70631      4.66784      4.66784      4.66784    1924759.5 
   33800    101.70631      4.66784      4.66784      4.66784    1925068.2 
   33900    101.70631      4.66784      4.66784      4.66784    1925409.2 
   34000    101.70631      4.66784      4.66784      4.66784    1925716.8 
   34100    101.70631      4.66784      4.66784      4.66784      1925987 
   34200    101.70631      4.66784      4.66784      4.66784    1926217.2 
   34300    101.70631      4.66784      4.66784      4.66784    1926411.1 
   34400    101.70631      4.66784      4.66784      4.66784    1926505.1 
   34500    101.70631      4.66784      4.66784      4.66784    1926554.5 
   34600    101.70631      4.66784      4.66784      4.66784    1926557.4 
   34700    101.70631      4.66784      4.66784      4.66784    1926568.5 
   34800    101.70631      4.66784      4.66784      4.66784      1926537 
   34900    101.70631      4.66784      4.66784      4.66784    1926447.2 
   35000    101.70631      4.66784      4.66784      4.66784    1926384.9 
   35100    101.70631      4.66784      4.66784      4.66784    1926259.8 
   35200    101.70631      4.66784      4.66784      4.66784    1926154.6 
   35300    101.70631      4.66784      4.66784      4.66784    1926034.9 
   35400    101.70631      4.66784      4.66784      4.66784    1925977.5 
   35500    101.70631      4.66784      4.66784      4.66784    1926059.7 
   35600    101.70631      4.66784      4.66784      4.66784    1926320.3 
   35700    101.70631      4.66784      4.66784      4.66784    1926688.9 
   35800    101.70631      4.66784      4.66784      4.66784    1927058.5 
   35900    101.70631      4.66784      4.66784      4.66784    1927363.6 
   36000    101.70631      4.66784      4.66784      4.66784    1927546.8 
   36100    101.70631      4.66784      4.66784      4.66784    1927657.1 
   36200    101.70631      4.66784      4.66784      4.66784    1927626.2 
   36300    101.70631      4.66784      4.66784      4.66784    1927504.3 
   36400    101.70631      4.66784      4.66784      4.66784    1927279.7 
   36500    101.70631      4.66784      4.66784      4.66784    1927055.9 
   36600    101.70631      4.66784      4.66784      4.66784    1926836.3 
   36700    101.70631      4.66784      4.66784      4.66784    1926569.6 
   36800    101.70631      4.66784      4.66784      4.66784    1926321.1 
   36900    101.70631      4.66784      4.66784      4.66784    1926072.1 
   37000    101.70631      4.66784      4.66784      4.66784    1925891.1 
   37100    101.70631      4.66784      4.66784      4.66784    1925800.7 
   37200    101.70631      4.66784      4.66784      4.66784    1925816.8 
   37300    101.70631      4.66784      4.66784      4.66784    1925814.5 
   37400    101.70631      4.66784      4.66784      4.66784    1925758.6 
   37500    101.70631      4.66784      4.66784      4.66784    1925569.2 
   37600    101.70631      4.66784      4.66784      4.66784    1925255.4 
   37700    101.70631      4.66784      4.66784      4.66784      1924878 
   37800    101.70631      4.66784      4.66784      4.66784    1924386.8 
   37900    101.70631      4.66784      4.66784      4.66784    1923831.3 
   38000    101.70631      4.66784      4.66784      4.66784    1923140.2 
   38100    101.70631      4.66784      4.66784      4.66784      1922462 
   38200    101.70631      4.66784      4.66784      4.66784    1921842.9 
   38300    101.70631      4.66784      4.66784      4.66784    1921315.4 
   38400    101.70631      4.66784      4.66784      4.66784    1920885.3 
   38500    101.70631      4.66784      4.66784      4.66784    1920558.2 
   38600    101.70631      4.66784      4.66784      4.66784    1920339.6 
   38700    101.70631      4.66784      4.66784      4.66784    1920234.8 
   38800    101.70631      4.66784      4.66784      4.66784    1920309.1 
   38900    101.70631      4.66784      4.66784      4.66784    1920475.6 
   39000    101.70631      4.66784      4.66784      4.66784    1920807.1 
   39100    101.70631      4.66784      4.66784      4.66784    1921170.4 
   39200    101.70631      4.66784      4.66784      4.66784    1921596.9 
   39300    101.70631      4.66784      4.66784      4.66784    1922017.2 
   39400    101.70631      4.66784      4.66784      4.66784    1922375.9 
   39500    101.70631      4.66784      4.66784      4.66784    1922643.6 
   39600    101.70631      4.66784      4.66784      4.66784    1922719.4 
   39700    101.70631      4.66784      4.66784      4.66784    1922679.7 
   39800    101.70631      4.66784      4.66784      4.66784    1922532.8 
   39900    101.70631      4.66784      4.66784      4.66784    1922438.9 
   40000    101.70631      4.66784      4.66784      4.66784    1922492.8 
   40100    101.70631      4.66784      4.66784      4.66784    1922758.3 
   40200    101.70631      4.66784      4.66784      4.66784    1923188.6 
   40300    101.70631      4.66784      4.66784      4.66784    1923724.3 
   40400    101.70631      4.66784      4.66784      4.66784    1924367.6 
   40500    101.70631      4.66784      4.66784      4.66784    1925046.4 
   40600    101.70631      4.66784      4.66784      4.66784    1925788.5 
   40700    101.70631      4.66784      4.66784      4.66784    1926443.3 
   40800    101.70631      4.66784      4.66784      4.66784    1927137.6 
   40900    101.70631      4.66784      4.66784      4.66784    1927752.3 
   41000    101.70631      4.66784      4.66784      4.66784    1928139.6 
   41100    101.70631      4.66784      4.66784      4.66784    1928253.1 
   41200    101.70631      4.66784      4.66784      4.66784    1928055.5 
   41300    101.70631      4.66784      4.66784      4.66784    1927616.7 
   41400    101.70631      4.66784      4.66784      4.66784    1927048.6 
   41500    101.70631      4.66784      4.66784      4.66784    1926576.4 
   41600    101.70631      4.66784      4.66784      4.66784    1926304.2 
   41700    101.70631      4.66784      4.66784      4.66784    1926394.5 
   41800    101.70631      4.66784      4.66784      4.66784    1926679.7 
   41900    101.70631      4.66784      4.66784      4.66784    1926972.5 
   42000    101.70631      4.66784      4.66784      4.66784    1927176.9 
   42100    101.70631      4.66784      4.66784      4.66784    1927370.8 
   42200    101.70631      4.66784      4.66784      4.66784    1927728.1 
   42300    101.70631      4.66784      4.66784      4.66784    1928118.8 
   42400    101.70631      4.66784      4.66784      4.66784    1928526.3 
   42500    101.70631      4.66784      4.66784      4.66784    1928821.5 
   42600    101.70631      4.66784      4.66784      4.66784    1928897.3 
   42700    101.70631      4.66784      4.66784      4.66784    1928623.8 
   42800    101.70631      4.66784      4.66784      4.66784    1928047.7 
   42900    101.70631      4.66784      4.66784      4.66784    1927267.6 
   43000    101.70631      4.66784      4.66784      4.66784    1926654.8 
   43100    101.70631      4.66784      4.66784      4.66784    1926400.8 
   43200    101.70631      4.66784      4.66784      4.66784    1926534.7 
   43300    101.70631      4.66784      4.66784      4.66784      1926928 
   43400    101.70631      4.66784      4.66784      4.66784    1927200.5 
   43500    101.70631      4.66784      4.66784      4.66784    1927387.2 
   43600    101.70631      4.66784      4.66784      4.66784    1927492.9 
   43700    101.70631      4.66784      4.66784      4.66784    1927665.8 
   43800    101.70631      4.66784      4.66784      4.66784    1927906.4 
   43900    101.70631      4.66784      4.66784      4.66784      1928167 
   44000    101.70631      4.66784      4.66784      4.66784    1928348.8 
   44100    101.70631      4.66784      4.66784      4.66784    1928248.3 
   44200    101.70631      4.66784      4.66784      4.66784    1927713.9 
   44300    101.70631      4.66784      4.66784      4.66784      1926785 
   44400    101.70631      4.66784      4.66784      4.66784    1925715.2 
   44500    101.70631      4.66784      4.66784      4.66784    1924694.9 
   44600    101.70631      4.66784      4.66784      4.66784    1923977.6 
   44700    101.70631      4.66784      4.66784      4.66784    1923499.3 
   44800    101.70631      4.66784      4.66784      4.66784    1923242.1 
   44900    101.70631      4.66784      4.66784      4.66784    1923073.3 
   45000    101.70631      4.66784      4.66784      4.66784    1922712.8 
   45100    101.70631      4.66784      4.66784      4.66784    1922286.2 
   45200    101.70631      4.66784      4.66784      4.66784    1921962.3 
   45300    101.70631      4.66784      4.66784      4.66784    1921957.8 
   45400    101.70631      4.66784      4.66784      4.66784    1922237.1 
   45500    101.70631      4.66784      4.66784      4.66784    1922704.7 
   45600    101.70631      4.66784      4.66784      4.66784    1923010.4 
   45700    101.70631      4.66784      4.66784      4.66784    1922881.2 
   45800    101.70631      4.66784      4.66784      4.66784    1922158.2 
   45900    101.70631      4.66784      4.66784      4.66784      1921133 
   46000    101.70631      4.66784      4.66784      4.66784    1920383.9 
   46100    101.70631      4.66784      4.66784      4.66784    1920065.2 
   46200    101.70631      4.66784      4.66784      4.66784    1920040.7 
   46300    101.70631      4.66784      4.66784      4.66784    1920219.9 
   46400    101.70631      4.66784      4.66784      4.66784      1920605 
   46500    101.70631      4.66784      4.66784      4.66784    1921089.4 
   46600    101.70631      4.66784      4.66784      4.66784    1921455.2 
   46700    101.70631      4.66784      4.66784      4.66784    1921906.3 
   46800    101.70631      4.66784      4.66784      4.66784    1922835.7 
   46900    101.70631      4.66784      4.66784      4.66784    1924255.1 
   47000    101.70631      4.66784      4.66784      4.66784    1925829.7 
   47100    101.70631      4.66784      4.66784      4.66784    1927270.1 
   47200    101.70631      4.66784      4.66784      4.66784    1928025.1 
   47300    101.70631      4.66784      4.66784      4.66784    1928091.9 
   47400    101.70631      4.66784      4.66784      4.66784    1927516.4 
   47500    101.70631      4.66784      4.66784      4.66784    1926793.2 
   47600    101.70631      4.66784      4.66784      4.66784    1926482.6 
   47700    101.70631      4.66784      4.66784      4.66784    1926776.5 
   47800    101.70631      4.66784      4.66784      4.66784    1927597.7 
   47900    101.70631      4.66784      4.66784      4.66784      1928411 
   48000    101.70631      4.66784      4.66784      4.66784    1928850.7 
   48100    101.70631      4.66784      4.66784      4.66784    1928812.8 
   48200    101.70631      4.66784      4.66784      4.66784    1928738.9 
   48300    101.70631      4.66784      4.66784      4.66784    1928861.4 
   48400    101.70631      4.66784      4.66784      4.66784    1929358.4 
   48500    101.70631      4.66784      4.66784      4.66784    1930216.6 
   48600    101.70631      4.66784      4.66784      4.66784    1931192.7 
   48700    101.70631      4.66784      4.66784      4.66784      1931744 
   48800    101.70631      4.66784      4.66784      4.66784    1931269.3 
   48900    101.70631      4.66784      4.66784      4.66784    1930124.7 
   49000    101.70631      4.66784      4.66784      4.66784    1928799.3 
   49100    101.70631      4.66784      4.66784      4.66784    1927869.4 
   49200    101.70631      4.66784      4.66784      4.66784    1927386.7 
   49300    101.70631      4.66784      4.66784      4.66784    1927322.2 
   49400    101.70631      4.66784      4.66784      4.66784    1927530.6 
   49500    101.70631      4.66784      4.66784      4.66784    1927697.1 
   49600    101.70631      4.66784      4.66784      4.66784    1927681.5 
   49700    101.70631      4.66784      4.66784      4.66784    1927457.4 
   49800    101.70631      4.66784      4.66784      4.66784    1927400.3 
   49900    101.70631      4.66784      4.66784      4.66784    1927720.4 
   50000    101.70631      4.66784      4.66784      4.66784    1928715.1 
   50100    101.70631      4.66784      4.66784      4.66784    1929855.8 
   50200    101.70631      4.66784      4.66784      4.66784    1930617.5 
   50300    101.70631      4.66784      4.66784      4.66784    1930461.5 
   50400    101.70631      4.66784      4.66784      4.66784    1929314.7 
   50500    101.70631      4.66784      4.66784      4.66784    1927784.8 
   50600    101.70631      4.66784      4.66784      4.66784    1926482.8 
   50700    101.70631      4.66784      4.66784      4.66784    1925871.6 
   50800    101.70631      4.66784      4.66784      4.66784    1925847.4 
   50900    101.70631      4.66784      4.66784      4.66784    1926154.9 
   51000    101.70631      4.66784      4.66784      4.66784    1926204.4 
   51100    101.70631      4.66784      4.66784      4.66784    1925790.2 
   51200    101.70631      4.66784      4.66784      4.66784    1924867.7 
   51300    101.70631      4.66784      4.66784      4.66784    1924839.3 
   51400    101.70631      4.66784      4.66784      4.66784    1924040.9 
   51500    101.70631      4.66784      4.66784      4.66784    1924091.9 
   51600    101.70631      4.66784      4.66784      4.66784    1924257.1 
   51700    101.70631      4.66784      4.66784      4.66784    1924334.3 
   51800    101.70631      4.66784      4.66784      4.66784    1923954.8 
   51900    101.70631      4.66784      4.66784      4.66784    1922967.2 
   52000    101.70631      4.66784      4.66784      4.66784    1921315.6 
   52100    101.70631      4.66784      4.66784      4.66784    1920107.4 
   52200    101.70631      4.66784      4.66784      4.66784    1919874.8 
   52300    101.70631      4.66784      4.66784      4.66784    1919456.3 
   52400    101.70631      4.66784      4.66784      4.66784    1919367.8 
   52500    101.70631      4.66784      4.66784      4.66784    1920223.2 
   52600    101.70631      4.66784      4.66784      4.66784    1921591.1 
   52700    101.70631      4.66784      4.66784      4.66784    1921424.8 
   52800    101.70631      4.66784      4.66784      4.66784    1921841.5 
   52900    101.70631      4.66784      4.66784      4.66784    1922631.3 
   53000    101.70631      4.66784      4.66784      4.66784      1924951 
   53100    101.70631      4.66784      4.66784      4.66784    1925590.8 
   53200    101.70631      4.66784      4.66784      4.66784    1926888.6 
   53300    101.70631      4.66784      4.66784      4.66784      1927782 
   53400    101.70631      4.66784      4.66784      4.66784    1927977.7 
   53500    101.70631      4.66784      4.66784      4.66784      1927545 
   53600    101.70631      4.66784      4.66784      4.66784    1926980.2 
   53700    101.70631      4.66784      4.66784      4.66784    1926772.6 
   53800    101.70631      4.66784      4.66784      4.66784    1927072.7 
   53900    101.70631      4.66784      4.66784      4.66784    1927869.6 
   54000    101.70631      4.66784      4.66784      4.66784    1928775.9 
   54100    101.70631      4.66784      4.66784      4.66784    1929395.6 
   54200    101.70631      4.66784      4.66784      4.66784    1929563.2 
   54300    101.70631      4.66784      4.66784      4.66784    1929752.3 
   54400    101.70631      4.66784      4.66784      4.66784    1930237.1 
   54500    101.70631      4.66784      4.66784      4.66784    1931492.5 
   54600    101.70631      4.66784      4.66784      4.66784    1932703.2 
   54700    101.70631      4.66784      4.66784      4.66784    1935123.8 
   54800    101.70631      4.66784      4.66784      4.66784    1935276.6 
   54900    101.70631      4.66784      4.66784      4.66784    1933861.4 
   55000    101.70631      4.66784      4.66784      4.66784    1933493.2 
   55100    101.70631      4.66784      4.66784      4.66784    1932912.2 
   55200    101.70631      4.66784      4.66784      4.66784      1932567 
   55300    101.70631      4.66784      4.66784      4.66784    1931529.4 
   55400    101.70631      4.66784      4.66784      4.66784    1931128.6 
   55500    101.70631      4.66784      4.66784      4.66784    1930635.9 
   55600    101.70631      4.66784      4.66784      4.66784    1930300.9 
   55700    101.70631      4.66784      4.66784      4.66784    1929597.8 
   55800    101.70631      4.66784      4.66784      4.66784    1928714.5 
   55900    101.70631      4.66784      4.66784      4.66784    1928433.6 
   56000    101.70631      4.66784      4.66784      4.66784    1928792.4 
   56100    101.70631      4.66784      4.66784      4.66784      1929727 
   56200    101.70631      4.66784      4.66784      4.66784      1930572 
   56300    101.70631      4.66784      4.66784      4.66784    1930893.5 
   56400    101.70631      4.66784      4.66784      4.66784    1930407.9 
   56500    101.70631      4.66784      4.66784      4.66784    1929116.4 
   56600    101.70631      4.66784      4.66784      4.66784    1927463.2 
   56700    101.70631      4.66784      4.66784      4.66784    1925958.2 
   56800    101.70631      4.66784      4.66784      4.66784    1924830.5 
   56900    101.70631      4.66784      4.66784      4.66784    1924326.6 
   57000    101.70631      4.66784      4.66784      4.66784    1924128.5 
   57100    101.70631      4.66784      4.66784      4.66784    1923540.3 
   57200    101.70631      4.66784      4.66784      4.66784    1922200.5 
   57300    101.70631      4.66784      4.66784      4.66784    1921301.8 
   57400    101.70631      4.66784      4.66784      4.66784    1921910.7 
   57500    101.70631      4.66784      4.66784      4.66784    1921139.1 
   57600    101.70631      4.66784      4.66784      4.66784    1921661.4 
   57700    101.70631      4.66784      4.66784      4.66784    1922243.6 
   57800    101.70631      4.66784      4.66784      4.66784    1922875.4 
   57900    101.70631      4.66784      4.66784      4.66784      1923332 
   58000    101.70631      4.66784      4.66784      4.66784      1923519 
   58100    101.70631      4.66784      4.66784      4.66784    1923533.2 
   58200    101.70631      4.66784      4.66784      4.66784    1922909.5 
   58300    101.70631      4.66784      4.66784      4.66784      1922762 
   58400    101.70631      4.66784      4.66784      4.66784    1923183.6 
   58500    101.70631      4.66784      4.66784      4.66784    1923830.1 
   58600    101.70631      4.66784      4.66784      4.66784    1924821.6 
   58700    101.70631      4.66784      4.66784      4.66784    1925804.9 
   58800    101.70631      4.66784      4.66784      4.66784    1926797.1 
   58900    101.70631      4.66784      4.66784      4.66784    1927817.6 
   59000    101.70631      4.66784      4.66784      4.66784      1928736 
   59100    101.70631      4.66784      4.66784      4.66784    1929809.3 
   59200    101.70631      4.66784      4.66784      4.66784    1930866.7 
   59300    101.70631      4.66784      4.66784      4.66784    1931981.7 
   59400    101.70631      4.66784      4.66784      4.66784      1932675 
   59500    101.70631      4.66784      4.66784      4.66784    1932519.9 
   59600    101.70631      4.66784      4.66784      4.66784    1931806.4 
   59700    101.70631      4.66784      4.66784      4.66784    1931340.2 
   59800    101.70631      4.66784      4.66784      4.66784    1929886.5 
   59900    101.70631      4.66784      4.66784      4.66784    1929158.1 
   60000    101.70631      4.66784      4.66784      4.66784    1929197.6 
   60100    101.70631      4.66784      4.66784      4.66784      1928954 
   60200    101.70631      4.66784      4.66784      4.66784    1928762.8 
   60300    101.70631      4.66784      4.66784      4.66784    1928856.8 
   60400    101.70631      4.66784      4.66784      4.66784    1929444.9 
   60500    101.70631      4.66784      4.66784      4.66784      1930458 
   60600    101.70631      4.66784      4.66784      4.66784    1931852.5 
   60700    101.70631      4.66784      4.66784      4.66784    1933620.3 
   60800    101.70631      4.66784      4.66784      4.66784    1934673.6 
   60900    101.70631      4.66784      4.66784      4.66784    1935545.3 
   61000    101.70631      4.66784      4.66784      4.66784    1935446.7 
   61100    101.70631      4.66784      4.66784      4.66784    1934052.8 
   61200    101.70631      4.66784      4.66784      4.66784    1933146.8 
   61300    101.70631      4.66784      4.66784      4.66784      1932355 
   61400    101.70631      4.66784      4.66784      4.66784    1931873.2 
   61500    101.70631      4.66784      4.66784      4.66784    1932123.1 
   61600    101.70631      4.66784      4.66784      4.66784    1932574.3 
   61700    101.70631      4.66784      4.66784      4.66784    1932429.7 
   61800    101.70631      4.66784      4.66784      4.66784    1931800.2 
   61900    101.70631      4.66784      4.66784      4.66784    1930911.9 
   62000    101.70631      4.66784      4.66784      4.66784      1930232 
   62100    101.70631      4.66784      4.66784      4.66784    1929970.9 
   62200    101.70631      4.66784      4.66784      4.66784    1929889.1 
   62300    101.70631      4.66784      4.66784      4.66784    1929688.4 
   62400    101.70631      4.66784      4.66784      4.66784    1928495.3 
   62500    101.70631      4.66784      4.66784      4.66784    1926383.5 
   62600    101.70631      4.66784      4.66784      4.66784    1925195.1 
   62700    101.70631      4.66784      4.66784      4.66784    1922043.2 
   62800    101.70631      4.66784      4.66784      4.66784    1920888.5 
   62900    101.70631      4.66784      4.66784      4.66784    1920362.7 
   63000    101.70631      4.66784      4.66784      4.66784    1919833.4 
   63100    101.70631      4.66784      4.66784      4.66784    1920668.7 
   63200    101.70631      4.66784      4.66784      4.66784    1920556.9 
   63300    101.70631      4.66784      4.66784      4.66784    1922915.3 
   63400    101.70631      4.66784      4.66784      4.66784      1923285 
   63500    101.70631      4.66784      4.66784      4.66784    1925668.3 
   63600    101.70631      4.66784      4.66784      4.66784      1929069 
   63700    101.70631      4.66784      4.66784      4.66784    1931372.6 
   63800    101.70631      4.66784      4.66784      4.66784    1932406.1 
   63900    101.70631      4.66784      4.66784      4.66784    1932721.9 
   64000    101.70631      4.66784      4.66784      4.66784    1932008.9 
   64100    101.70631      4.66784      4.66784      4.66784    1931044.2 
   64200    101.70631      4.66784      4.66784      4.66784    1930384.2 
   64300    101.70631      4.66784      4.66784      4.66784    1930272.2 
   64400    101.70631      4.66784      4.66784      4.66784    1930805.3 
   64500    101.70631      4.66784      4.66784      4.66784    1931846.7 
   64600    101.70631      4.66784      4.66784      4.66784    1933381.4 
   64700    101.70631      4.66784      4.66784      4.66784    1934969.1 
   64800    101.70631      4.66784      4.66784      4.66784    1936042.2 
   64900    101.70631      4.66784      4.66784      4.66784    1937982.3 
   65000    101.70631      4.66784      4.66784      4.66784    1938560.8 
   65100    101.70631      4.66784      4.66784      4.66784    1939237.4 
   65200    101.70631      4.66784      4.66784      4.66784    1940263.8 
   65300    101.70631      4.66784      4.66784      4.66784    1939791.3 
   65400    101.70631      4.66784      4.66784      4.66784    1939443.9 
   65500    101.70631      4.66784      4.66784      4.66784    1937727.4 
   65600    101.70631      4.66784      4.66784      4.66784    1936578.3 
   65700    101.70631      4.66784      4.66784      4.66784    1937116.8 
   65800    101.70631      4.66784      4.66784      4.66784    1935316.8 
   65900    101.70631      4.66784      4.66784      4.66784    1934963.2 
   66000    101.70631      4.66784      4.66784      4.66784      1934582 
   66100    101.70631      4.66784      4.66784      4.66784    1934088.4 
   66200    101.70631      4.66784      4.66784      4.66784    1933736.6 
   66300    101.70631      4.66784      4.66784      4.66784    1934440.1 
   66400    101.70631      4.66784      4.66784      4.66784    1935788.4 
   66500    101.70631      4.66784      4.66784      4.66784    1936726.5 
   66600    101.70631      4.66784      4.66784      4.66784    1937250.3 
   66700    101.70631      4.66784      4.66784      4.66784    1936779.7 
   66800    101.70631      4.66784      4.66784      4.66784    1934766.2 
   66900    101.70631      4.66784      4.66784      4.66784      1931635 
   67000    101.70631      4.66784      4.66784      4.66784    1928184.9 
   67100    101.70631      4.66784      4.66784      4.66784      1926126 
   67200    101.70631      4.66784      4.66784      4.66784    1924263.8 
   67300    101.70631      4.66784      4.66784      4.66784    1923664.4 
   67400    101.70631      4.66784      4.66784      4.66784    1924210.3 
   67500    101.70631      4.66784      4.66784      4.66784    1924594.4 
   67600    101.70631      4.66784      4.66784      4.66784    1925159.1 
   67700    101.70631      4.66784      4.66784      4.66784    1925681.5 
   67800    101.70631      4.66784      4.66784      4.66784    1925481.6 
   67900    101.70631      4.66784      4.66784      4.66784      1925843 
   68000    101.70631      4.66784      4.66784      4.66784    1926459.5 
   68100    101.70631      4.66784      4.66784      4.66784    1929522.5 
   68200    101.70631      4.66784      4.66784      4.66784    1931034.1 
   68300    101.70631      4.66784      4.66784      4.66784    1931478.4 
   68400    101.70631      4.66784      4.66784      4.66784    1931202.2 
   68500    101.70631      4.66784      4.66784      4.66784    1930425.5 
   68600    101.70631      4.66784      4.66784      4.66784      1929923 
   68700    101.70631      4.66784      4.66784      4.66784    1930467.2 
   68800    101.70631      4.66784      4.66784      4.66784    1932562.7 
   68900    101.70631      4.66784      4.66784      4.66784    1935080.8 
   69000    101.70631      4.66784      4.66784      4.66784      1937249 
   69100    101.70631      4.66784      4.66784      4.66784    1937995.6 
   69200    101.70631      4.66784      4.66784      4.66784      1938095 
   69300    101.70631      4.66784      4.66784      4.66784    1939362.8 
   69400    101.70631      4.66784      4.66784      4.66784    1941046.2 
   69500    101.70631      4.66784      4.66784      4.66784    1941549.2 
   69600    101.70631      4.66784      4.66784      4.66784    1943188.8 
   69700    101.70631      4.66784      4.66784      4.66784    1943136.2 
   69800    101.70631      4.66784      4.66784      4.66784      1940701 
   69900    101.70631      4.66784      4.66784      4.66784    1936484.3 
   70000    101.70631      4.66784      4.66784      4.66784      1933349 
   70100    101.70631      4.66784      4.66784      4.66784    1933042.5 
   70200    101.70631      4.66784      4.66784      4.66784    1934189.3 
   70300    101.70631      4.66784      4.66784      4.66784    1934899.8 
   70400    101.70631      4.66784      4.66784      4.66784      1936704 
   70500    101.70631      4.66784      4.66784      4.66784      1937514 
   70600    101.70631      4.66784      4.66784      4.66784    1937590.3 
   70700    101.70631      4.66784      4.66784      4.66784    1937018.9 
   70800    101.70631      4.66784      4.66784      4.66784    1937914.3 
   70900    101.70631      4.66784      4.66784      4.66784    1939717.7 
   71000    101.70631      4.66784      4.66784      4.66784    1940887.7 
   71100    101.70631      4.66784      4.66784      4.66784    1941592.3 
   71200    101.70631      4.66784      4.66784      4.66784    1939622.6 
   71300    101.70631      4.66784      4.66784      4.66784      1936766 
   71400    101.70631      4.66784      4.66784      4.66784    1934200.6 
   71500    101.70631      4.66784      4.66784      4.66784    1932271.7 
   71600    101.70631      4.66784      4.66784      4.66784    1931624.4 
   71700    101.70631      4.66784      4.66784      4.66784    1932322.7 
   71800    101.70631      4.66784      4.66784      4.66784    1931827.4 
   71900    101.70631      4.66784      4.66784      4.66784    1931351.7 
   72000    101.70631      4.66784      4.66784      4.66784      1931342 
   72100    101.70631      4.66784      4.66784      4.66784    1931379.4 
   72200    101.70631      4.66784      4.66784      4.66784    1932014.6 
   72300    101.70631      4.66784      4.66784      4.66784    1932715.9 
   72400    101.70631      4.66784      4.66784      4.66784    1933833.7 
   72500    101.70631      4.66784      4.66784      4.66784    1933845.1 
   72600    101.70631      4.66784      4.66784      4.66784      1932603 
   72700    101.70631      4.66784      4.66784      4.66784    1931513.6 
   72800    101.70631      4.66784      4.66784      4.66784    1931684.9 
   72900    101.70631      4.66784      4.66784      4.66784    1930873.5 
   73000    101.70631      4.66784      4.66784      4.66784    1929964.3 
   73100    101.70631      4.66784      4.66784      4.66784    1930373.8 
   73200    101.70631      4.66784      4.66784      4.66784    1931072.4 
   73300    101.70631      4.66784      4.66784      4.66784    1930989.6 
   73400    101.70631      4.66784      4.66784      4.66784    1932860.7 
   73500    101.70631      4.66784      4.66784      4.66784      1938314 
   73600    101.70631      4.66784      4.66784      4.66784    1944804.3 
   73700    101.70631      4.66784      4.66784      4.66784    1948437.5 
   73800    101.70631      4.66784      4.66784      4.66784    1948178.2 
   73900    101.70631      4.66784      4.66784      4.66784    1944497.4 
   74000    101.70631      4.66784      4.66784      4.66784    1940075.1 
   74100    101.70631      4.66784      4.66784      4.66784    1937506.9 
   74200    101.70631      4.66784      4.66784      4.66784    1936107.2 
   74300    101.70631      4.66784      4.66784      4.66784    1935046.5 
   74400    101.70631      4.66784      4.66784      4.66784    1937086.2 
   74500    101.70631      4.66784      4.66784      4.66784    1939483.4 
   74600    101.70631      4.66784      4.66784      4.66784    1941508.5 
   74700    101.70631      4.66784      4.66784      4.66784    1941585.1 
   74800    101.70631      4.66784      4.66784      4.66784      1940784 
   74900    101.70631      4.66784      4.66784      4.66784    1943885.2 
   75000    101.70631      4.66784      4.66784      4.66784    1946837.9 
   75100    101.70631      4.66784      4.66784      4.66784    1951371.7 
   75200    101.70631      4.66784      4.66784      4.66784    1951454.7 
   75300    101.70631      4.66784      4.66784      4.66784    1948921.1 
   75400    101.70631      4.66784      4.66784      4.66784    1944372.5 
   75500    101.70631      4.66784      4.66784      4.66784    1941215.5 
   75600    101.70631      4.66784      4.66784      4.66784    1941383.8 
   75700    101.70631      4.66784      4.66784      4.66784    1940628.4 
   75800    101.70631      4.66784      4.66784      4.66784    1940757.6 
   75900    101.70631      4.66784      4.66784      4.66784      1942417 
   76000    101.70631      4.66784      4.66784      4.66784    1943159.6 
   76100    101.70631      4.66784      4.66784      4.66784    1940305.5 
   76200    101.70631      4.66784      4.66784      4.66784    1935957.8 
   76300    101.70631      4.66784      4.66784      4.66784      1934500 
   76400    101.70631      4.66784      4.66784      4.66784    1934920.7 
   76500    101.70631      4.66784      4.66784      4.66784    1936733.2 
   76600    101.70631      4.66784      4.66784      4.66784    1939091.6 
   76700    101.70631      4.66784      4.66784      4.66784    1937544.5 
   76800    101.70631      4.66784      4.66784      4.66784    1935605.7 
   76900    101.70631      4.66784      4.66784      4.66784    1934484.2 
   77000    101.70631      4.66784      4.66784      4.66784    1933963.8 
   77100    101.70631      4.66784      4.66784      4.66784    1933420.7 
[...]
  474800    101.70631      4.66784      4.66784      4.66784    1992454.2 
  474900    101.70631      4.66784      4.66784      4.66784    1997656.8 
  475000    101.70631      4.66784      4.66784      4.66784    1995586.6 
  475100    101.70631      4.66784      4.66784      4.66784    1985987.9 
  475200    101.70631      4.66784      4.66784      4.66784    1977807.6 
  475300    101.70631      4.66784      4.66784      4.66784    1979891.7 
  475400    101.70631      4.66784      4.66784      4.66784    1986988.8 
  475500    101.70631      4.66784      4.66784      4.66784    1990722.4 
  475600    101.70631      4.66784      4.66784      4.66784      1995686 
  475700    101.70631      4.66784      4.66784      4.66784    1993615.8 
  475800    101.70631      4.66784      4.66784      4.66784    1988098.1 
  475900    101.70631      4.66784      4.66784      4.66784      1983128 
  476000    101.70631      4.66784      4.66784      4.66784    1986443.9 
  476100    101.70631      4.66784      4.66784      4.66784    1980269.5 
  476200    101.70631      4.66784      4.66784      4.66784    1978112.1 
  476300    101.70631      4.66784      4.66784      4.66784    1981868.4 
  476400    101.70631      4.66784      4.66784      4.66784    1989055.1 
  476500    101.70631      4.66784      4.66784      4.66784    1996288.5 
  476600    101.70631      4.66784      4.66784      4.66784    1982964.2 
  476700    101.70631      4.66784      4.66784      4.66784    1984366.2 
  476800    101.70631      4.66784      4.66784      4.66784      1974258 
  476900    101.70631      4.66784      4.66784      4.66784    1979385.8 
  477000    101.70631      4.66784      4.66784      4.66784    1982856.8 
  477100    101.70631      4.66784      4.66784      4.66784    1987746.1 
  477200    101.70631      4.66784      4.66784      4.66784    1990021.2 
  477300    101.70631      4.66784      4.66784      4.66784    1979689.5 
  477400    101.70631      4.66784      4.66784      4.66784    1980066.5 
  477500    101.70631      4.66784      4.66784      4.66784      1982299 
  477600    101.70631      4.66784      4.66784      4.66784    1986288.2 
  477700    101.70631      4.66784      4.66784      4.66784    1980816.3 
  477800    101.70631      4.66784      4.66784      4.66784    1984884.9 
  477900    101.70631      4.66784      4.66784      4.66784      1987351 
  478000    101.70631      4.66784      4.66784      4.66784    1988866.6 
  478100    101.70631      4.66784      4.66784      4.66784    1988294.8 
  478200    101.70631      4.66784      4.66784      4.66784    1983372.5 
  478300    101.70631      4.66784      4.66784      4.66784      1983727 
  478400    101.70631      4.66784      4.66784      4.66784    1975064.3 
  478500    101.70631      4.66784      4.66784      4.66784    1982895.6 
  478600    101.70631      4.66784      4.66784      4.66784    1985042.6 
  478700    101.70631      4.66784      4.66784      4.66784    1992641.7 
  478800    101.70631      4.66784      4.66784      4.66784    1991337.3 
  478900    101.70631      4.66784      4.66784      4.66784    1984794.9 
  479000    101.70631      4.66784      4.66784      4.66784    1980189.4 
  479100    101.70631      4.66784      4.66784      4.66784    1973393.5 
  479200    101.70631      4.66784      4.66784      4.66784    1985570.9 
  479300    101.70631      4.66784      4.66784      4.66784    1984201.1 
  479400    101.70631      4.66784      4.66784      4.66784    1989886.7 
  479500    101.70631      4.66784      4.66784      4.66784      1984360 
  479600    101.70631      4.66784      4.66784      4.66784    1984268.6 
  479700    101.70631      4.66784      4.66784      4.66784    1994917.3 
  479800    101.70631      4.66784      4.66784      4.66784      1996866 
  479900    101.70631      4.66784      4.66784      4.66784    1998576.3 
  480000    101.70631      4.66784      4.66784      4.66784    1995495.2 
  480100    101.70631      4.66784      4.66784      4.66784    1979766.3 
  480200    101.70631      4.66784      4.66784      4.66784    1971384.3 
  480300    101.70631      4.66784      4.66784      4.66784    1979208.7 
  480400    101.70631      4.66784      4.66784      4.66784    1977899.1 
  480500    101.70631      4.66784      4.66784      4.66784    1980991.6 
  480600    101.70631      4.66784      4.66784      4.66784    1989018.4 
  480700    101.70631      4.66784      4.66784      4.66784      1988214 
  480800    101.70631      4.66784      4.66784      4.66784    1987562.4 
  480900    101.70631      4.66784      4.66784      4.66784    1989141.4 
  481000    101.70631      4.66784      4.66784      4.66784    1983292.1 
  481100    101.70631      4.66784      4.66784      4.66784    1981535.5 
  481200    101.70631      4.66784      4.66784      4.66784    1983066.2 
  481300    101.70631      4.66784      4.66784      4.66784    1980816.3 
  481400    101.70631      4.66784      4.66784      4.66784    1979651.9 
  481500    101.70631      4.66784      4.66784      4.66784    1978169.2 
  481600    101.70631      4.66784      4.66784      4.66784    1977479.5 
  481700    101.70631      4.66784      4.66784      4.66784    1977521.1 
  481800    101.70631      4.66784      4.66784      4.66784    1979710.4 
  481900    101.70631      4.66784      4.66784      4.66784    1982426.7 
  482000    101.70631      4.66784      4.66784      4.66784    1981264.7 
  482100    101.70631      4.66784      4.66784      4.66784    1988818.2 
  482200    101.70631      4.66784      4.66784      4.66784    1989796.1 
  482300    101.70631      4.66784      4.66784      4.66784    1988302.5 
  482400    101.70631      4.66784      4.66784      4.66784    1989881.4 
  482500    101.70631      4.66784      4.66784      4.66784    1978229.7 
  482600    101.70631      4.66784      4.66784      4.66784    1973263.5 
  482700    101.70631      4.66784      4.66784      4.66784    1973258.1 
  482800    101.70631      4.66784      4.66784      4.66784    1981709.1 
  482900    101.70631      4.66784      4.66784      4.66784    2000231.8 
  483000    101.70631      4.66784      4.66784      4.66784    2007266.6 
  483100    101.70631      4.66784      4.66784      4.66784    1998919.1 
  483200    101.70631      4.66784      4.66784      4.66784    1983334.1 
  483300    101.70631      4.66784      4.66784      4.66784    1973630.8 
  483400    101.70631      4.66784      4.66784      4.66784    1974249.9 
  483500    101.70631      4.66784      4.66784      4.66784    1978626.9 
  483600    101.70631      4.66784      4.66784      4.66784    1983316.5 
  483700    101.70631      4.66784      4.66784      4.66784    1985912.7 
  483800    101.70631      4.66784      4.66784      4.66784      1981329 
  483900    101.70631      4.66784      4.66784      4.66784    1973947.7 
  484000    101.70631      4.66784      4.66784      4.66784    1981344.6 
  484100    101.70631      4.66784      4.66784      4.66784    1989465.6 
  484200    101.70631      4.66784      4.66784      4.66784    1978475.6 
  484300    101.70631      4.66784      4.66784      4.66784    1972854.9 
  484400    101.70631      4.66784      4.66784      4.66784    1972998.5 
  484500    101.70631      4.66784      4.66784      4.66784    1980771.2 
  484600    101.70631      4.66784      4.66784      4.66784    1980210.8 
  484700    101.70631      4.66784      4.66784      4.66784    1967453.5 
  484800    101.70631      4.66784      4.66784      4.66784    1968670.6 
  484900    101.70631      4.66784      4.66784      4.66784    1974602.8 
  485000    101.70631      4.66784      4.66784      4.66784    1980424.1 
  485100    101.70631      4.66784      4.66784      4.66784    1990676.7 
  485200    101.70631      4.66784      4.66784      4.66784    1988513.4 
  485300    101.70631      4.66784      4.66784      4.66784    1982196.7 
  485400    101.70631      4.66784      4.66784      4.66784    1974761.5 
  485500    101.70631      4.66784      4.66784      4.66784    1966143.6 
  485600    101.70631      4.66784      4.66784      4.66784    1962280.8 
  485700    101.70631      4.66784      4.66784      4.66784    1965701.1 
  485800    101.70631      4.66784      4.66784      4.66784    1966513.2 
  485900    101.70631      4.66784      4.66784      4.66784    1971212.2 
  486000    101.70631      4.66784      4.66784      4.66784    1980621.7 
  486100    101.70631      4.66784      4.66784      4.66784    1983290.6 
  486200    101.70631      4.66784      4.66784      4.66784    1982661.7 
  486300    101.70631      4.66784      4.66784      4.66784      1970084 
  486400    101.70631      4.66784      4.66784      4.66784    1973219.8 
  486500    101.70631      4.66784      4.66784      4.66784      1979877 
  486600    101.70631      4.66784      4.66784      4.66784    1976933.7 
  486700    101.70631      4.66784      4.66784      4.66784    1986048.1 
  486800    101.70631      4.66784      4.66784      4.66784    1985959.6 
  486900    101.70631      4.66784      4.66784      4.66784    1974665.1 
  487000    101.70631      4.66784      4.66784      4.66784      1973653 
  487100    101.70631      4.66784      4.66784      4.66784    1974371.3 
  487200    101.70631      4.66784      4.66784      4.66784    1980134.3 
  487300    101.70631      4.66784      4.66784      4.66784    1989230.7 
  487400    101.70631      4.66784      4.66784      4.66784    1984729.2 
  487500    101.70631      4.66784      4.66784      4.66784    1979819.4 
  487600    101.70631      4.66784      4.66784      4.66784    1976501.8 
  487700    101.70631      4.66784      4.66784      4.66784    1975498.8 
  487800    101.70631      4.66784      4.66784      4.66784    1977941.6 
  487900    101.70631      4.66784      4.66784      4.66784    1981249.3 
  488000    101.70631      4.66784      4.66784      4.66784    1983297.8 
  488100    101.70631      4.66784      4.66784      4.66784      1984902 
  488200    101.70631      4.66784      4.66784      4.66784    1972560.9 
  488300    101.70631      4.66784      4.66784      4.66784    1970503.3 
  488400    101.70631      4.66784      4.66784      4.66784    1978451.2 
  488500    101.70631      4.66784      4.66784      4.66784      1971508 
  488600    101.70631      4.66784      4.66784      4.66784    1975266.7 
  488700    101.70631      4.66784      4.66784      4.66784    1977132.4 
  488800    101.70631      4.66784      4.66784      4.66784    1977264.5 
  488900    101.70631      4.66784      4.66784      4.66784      1977663 
  489000    101.70631      4.66784      4.66784      4.66784    1978398.6 
  489100    101.70631      4.66784      4.66784      4.66784    1975065.5 
  489200    101.70631      4.66784      4.66784      4.66784    1969807.3 
  489300    101.70631      4.66784      4.66784      4.66784    1971862.3 
  489400    101.70631      4.66784      4.66784      4.66784    1975676.9 
  489500    101.70631      4.66784      4.66784      4.66784    1981489.4 
  489600    101.70631      4.66784      4.66784      4.66784    1982399.5 
  489700    101.70631      4.66784      4.66784      4.66784    1979659.7 
  489800    101.70631      4.66784      4.66784      4.66784    1974996.4 
  489900    101.70631      4.66784      4.66784      4.66784    1971179.9 
  490000    101.70631      4.66784      4.66784      4.66784      1972431 
  490100    101.70631      4.66784      4.66784      4.66784    1970110.6 
  490200    101.70631      4.66784      4.66784      4.66784    1972953.4 
  490300    101.70631      4.66784      4.66784      4.66784    1980912.8 
  490400    101.70631      4.66784      4.66784      4.66784    1978528.9 
  490500    101.70631      4.66784      4.66784      4.66784    1974938.5 
  490600    101.70631      4.66784      4.66784      4.66784    1972058.1 
  490700    101.70631      4.66784      4.66784      4.66784    1967351.1 
  490800    101.70631      4.66784      4.66784      4.66784    1974036.3 
  490900    101.70631      4.66784      4.66784      4.66784    1988305.7 
  491000    101.70631      4.66784      4.66784      4.66784    1989630.7 
  491100    101.70631      4.66784      4.66784      4.66784    1983176.1 
  491200    101.70631      4.66784      4.66784      4.66784    1977831.4 
  491300    101.70631      4.66784      4.66784      4.66784    1970396.9 
  491400    101.70631      4.66784      4.66784      4.66784    1965892.8 
  491500    101.70631      4.66784      4.66784      4.66784    1969921.7 
  491600    101.70631      4.66784      4.66784      4.66784    1976360.3 
  491700    101.70631      4.66784      4.66784      4.66784    1982163.2 
  491800    101.70631      4.66784      4.66784      4.66784    1983121.9 
  491900    101.70631      4.66784      4.66784      4.66784    1976897.4 
  492000    101.70631      4.66784      4.66784      4.66784    1978804.9 
  492100    101.70631      4.66784      4.66784      4.66784      1977089 
  492200    101.70631      4.66784      4.66784      4.66784    1973942.7 
  492300    101.70631      4.66784      4.66784      4.66784    1971013.5 
  492400    101.70631      4.66784      4.66784      4.66784    1978100.5 
  492500    101.70631      4.66784      4.66784      4.66784    1982015.3 
  492600    101.70631      4.66784      4.66784      4.66784    1985517.3 
  492700    101.70631      4.66784      4.66784      4.66784    1992957.2 
  492800    101.70631      4.66784      4.66784      4.66784    1986795.4 
  492900    101.70631      4.66784      4.66784      4.66784    1983999.7 
  493000    101.70631      4.66784      4.66784      4.66784    1976275.7 
  493100    101.70631      4.66784      4.66784      4.66784    1972245.5 
  493200    101.70631      4.66784      4.66784      4.66784    1976863.7 
  493300    101.70631      4.66784      4.66784      4.66784      1976920 
  493400    101.70631      4.66784      4.66784      4.66784    1984723.2 
  493500    101.70631      4.66784      4.66784      4.66784    1986539.3 
  493600    101.70631      4.66784      4.66784      4.66784      1986291 
  493700    101.70631      4.66784      4.66784      4.66784    1974614.5 
  493800    101.70631      4.66784      4.66784      4.66784    1972213.2 
  493900    101.70631      4.66784      4.66784      4.66784    1980090.8 
  494000    101.70631      4.66784      4.66784      4.66784    1981327.4 
  494100    101.70631      4.66784      4.66784      4.66784    1979082.7 
  494200    101.70631      4.66784      4.66784      4.66784      1980750 
  494300    101.70631      4.66784      4.66784      4.66784    1984403.1 
  494400    101.70631      4.66784      4.66784      4.66784    1969001.9 
  494500    101.70631      4.66784      4.66784      4.66784    1963073.2 
  494600    101.70631      4.66784      4.66784      4.66784    1967258.4 
  494700    101.70631      4.66784      4.66784      4.66784    1963810.3 
  494800    101.70631      4.66784      4.66784      4.66784    1970934.6 
  494900    101.70631      4.66784      4.66784      4.66784    1990396.4 
  495000    101.70631      4.66784      4.66784      4.66784    1989609.6 
  495100    101.70631      4.66784      4.66784      4.66784    1974085.2 
  495200    101.70631      4.66784      4.66784      4.66784    1963393.6 
  495300    101.70631      4.66784      4.66784      4.66784    1965379.5 
  495400    101.70631      4.66784      4.66784      4.66784      1969372 
  495500    101.70631      4.66784      4.66784      4.66784      1972382 
  495600    101.70631      4.66784      4.66784      4.66784    1972002.9 
  495700    101.70631      4.66784      4.66784      4.66784    1969608.9 
  495800    101.70631      4.66784      4.66784      4.66784    1979261.4 
  495900    101.70631      4.66784      4.66784      4.66784    1981332.9 
  496000    101.70631      4.66784      4.66784      4.66784    1976755.5 
  496100    101.70631      4.66784      4.66784      4.66784    1972107.1 
  496200    101.70631      4.66784      4.66784      4.66784      1968778 
  496300    101.70631      4.66784      4.66784      4.66784      1969921 
  496400    101.70631      4.66784      4.66784      4.66784    1972181.4 
  496500    101.70631      4.66784      4.66784      4.66784    1978728.9 
  496600    101.70631      4.66784      4.66784      4.66784    1976478.1 
  496700    101.70631      4.66784      4.66784      4.66784    1976752.3 
  496800    101.70631      4.66784      4.66784      4.66784    1981803.9 
  496900    101.70631      4.66784      4.66784      4.66784    1976753.7 
  497000    101.70631      4.66784      4.66784      4.66784      1972393 
  497100    101.70631      4.66784      4.66784      4.66784    1977782.6 
  497200    101.70631      4.66784      4.66784      4.66784    1973238.6 
  497300    101.70631      4.66784      4.66784      4.66784    1968804.7 
  497400    101.70631      4.66784      4.66784      4.66784    1975719.6 
  497500    101.70631      4.66784      4.66784      4.66784    1989933.7 
  497600    101.70631      4.66784      4.66784      4.66784    1987004.8 
  497700    101.70631      4.66784      4.66784      4.66784    1968816.7 
  497800    101.70631      4.66784      4.66784      4.66784      1963274 
  497900    101.70631      4.66784      4.66784      4.66784    1974063.3 
  498000    101.70631      4.66784      4.66784      4.66784    1978221.6 
  498100    101.70631      4.66784      4.66784      4.66784    1980974.7 
  498200    101.70631      4.66784      4.66784      4.66784    1993756.9 
  498300    101.70631      4.66784      4.66784      4.66784    1980260.8 
  498400    101.70631      4.66784      4.66784      4.66784    1973994.6 
  498500    101.70631      4.66784      4.66784      4.66784    1984787.4 
  498600    101.70631      4.66784      4.66784      4.66784    1977160.6 
  498700    101.70631      4.66784      4.66784      4.66784    1977112.6 
  498800    101.70631      4.66784      4.66784      4.66784    1979565.6 
  498900    101.70631      4.66784      4.66784      4.66784    1979429.1 
  499000    101.70631      4.66784      4.66784      4.66784    1990956.4 
  499100    101.70631      4.66784      4.66784      4.66784    1989894.3 
  499200    101.70631      4.66784      4.66784      4.66784    1983994.5 
  499300    101.70631      4.66784      4.66784      4.66784    1973441.7 
  499400    101.70631      4.66784      4.66784      4.66784    1987230.3 
  499500    101.70631      4.66784      4.66784      4.66784    1991174.5 
  499600    101.70631      4.66784      4.66784      4.66784    1983199.9 
  499700    101.70631      4.66784      4.66784      4.66784    1983810.9 
  499800    101.70631      4.66784      4.66784      4.66784    1992181.8 
  499900    101.70631      4.66784      4.66784      4.66784    1986034.5 
  500000    101.70631      4.66784      4.66784      4.66784    1971562.9 
Loop time of 25.6515 on 1 procs for 500000 steps with 14 atoms

Performance: 168.411 ns/day, 0.143 hours/ns, 19492.031 timesteps/s
99.9% CPU use with 1 MPI tasks x 1 OpenMP threads

MPI task timing breakdown:
Section |  min time  |  avg time  |  max time  |%varavg| %total
---------------------------------------------------------------
Pair    | 23.394     | 23.394     | 23.394     |   0.0 | 91.20
Neigh   | 0.35738    | 0.35738    | 0.35738    |   0.0 |  1.39
Comm    | 1.2759     | 1.2759     | 1.2759     |   0.0 |  4.97
Output  | 0.029278   | 0.029278   | 0.029278   |   0.0 |  0.11
Modify  | 0.35158    | 0.35158    | 0.35158    |   0.0 |  1.37
Other   |            | 0.2434     |            |       |  0.95

Nlocal:    14 ave 14 max 14 min
Histogram: 1 0 0 0 0 0 0 0 0 0
Nghost:    714 ave 714 max 714 min
Histogram: 1 0 0 0 0 0 0 0 0 0
Neighs:    1024 ave 1024 max 1024 min
Histogram: 1 0 0 0 0 0 0 0 0 0

Total # of neighbors = 1024
Ave neighs/atom = 73.1429
Neighbor list builds = 17185
Dangerous builds = 0
