
units 		metal
dimension 	3
boundary 	p p p
atom_style 	atomic


#--------------Create Atom----------------------------

read_data	data.CuNi${SIMNUM} #append num for atoms or time
read_data	data.CuNi3 
  orthogonal box = (-0.02 -0.02 -0.02) to (9.22 9.22 9.22)
  1 by 1 by 1 MPI processor grid
  reading atoms ...
  63 atoms
  reading velocities ...
  63 velocities


#---------------Define Interatomic Potential----------

pair_style eam/alloy
pair_coeff * * CuNi.eam.alloy Ni Cu
Reading potential file CuNi.eam.alloy with DATE: 2014-07-11
neighbor .05 bin
neigh_modify delay 10 check yes

#---------------Define Settings--------------


#---------------Specify Volume------------------------

change_box all x scale ${SCALE} y scale ${SCALE} z scale ${SCALE}
change_box all x scale 1.004 y scale ${SCALE} z scale ${SCALE}
change_box all x scale 1.004 y scale 1.004 z scale ${SCALE}
change_box all x scale 1.004 y scale 1.004 z scale 1.004
  orthogonal box = (-0.03848 -0.02 -0.02) to (9.23848 9.22 9.22)
  orthogonal box = (-0.03848 -0.03848 -0.02) to (9.23848 9.23848 9.22)
  orthogonal box = (-0.03848 -0.03848 -0.03848) to (9.23848 9.23848 9.23848)

#---------------Run Minimization----------------------

reset_timestep 0
timestep 0.0001
thermo          100
thermo_style    custom step temp pe etotal press lx ly lz



min_style cg # use conjugate gradient method
minimize 1.0e-4 1.0e-6 100 100000
WARNING: Using 'neigh_modify every 1 delay 0 check yes' setting during minimization (src/min.cpp:168)
Neighbor list info ...
  update every 1 steps, delay 0 steps, check yes
  max neighbors/atom: 2000, page size: 100000
  master list distance cutoff = 6.44433
  ghost atom cutoff = 6.44433
  binsize = 3.22217, bins = 3 3 3
  1 neighbor lists, perpetual/occasional/extra = 1 0 0
  (1) pair eam/alloy, perpetual
      attributes: half, newton on
      pair build: half/bin/atomonly/newton
      stencil: half/bin/3d/newton
      bin: standard
Per MPI rank memory allocation (min/avg/max) = 4.074 | 4.074 | 4.074 Mbytes
Step Temp PotEng TotEng Press Lx Ly Lz 
       0            0    26785.769    26785.769    4096395.6      9.27696      9.27696      9.27696 
      75            0   -232.68621   -232.68621   -47354.186      9.27696      9.27696      9.27696 
Loop time of 0.0230232 on 1 procs for 75 steps with 63 atoms

100.0% CPU use with 1 MPI tasks x 1 OpenMP threads

Minimization stats:
  Stopping criterion = energy tolerance
  Energy initial, next-to-last, final = 
         26785.7685609     -232.664090098     -232.686209335
  Force two-norm initial, final = 21636.8 0.519213
  Force max component initial, final = 4408.37 0.138241
  Final line search alpha, max atom move = 0.347784 0.0480779
  Iterations, force evaluations = 75 107

MPI task timing breakdown:
Section |  min time  |  avg time  |  max time  |%varavg| %total
---------------------------------------------------------------
Pair    | 0.014047   | 0.014047   | 0.014047   |   0.0 | 61.01
Neigh   | 0.0075929  | 0.0075929  | 0.0075929  |   0.0 | 32.98
Comm    | 0.00099837 | 0.00099837 | 0.00099837 |   0.0 |  4.34
Output  | 0          | 0          | 0          |   0.0 |  0.00
Modify  | 0          | 0          | 0          |   0.0 |  0.00
Other   |            | 0.0003854  |            |       |  1.67

Nlocal:    63 ave 63 max 63 min
Histogram: 1 0 0 0 0 0 0 0 0 0
Nghost:    801 ave 801 max 801 min
Histogram: 1 0 0 0 0 0 0 0 0 0
Neighs:    2712 ave 2712 max 2712 min
Histogram: 1 0 0 0 0 0 0 0 0 0

Total # of neighbors = 2712
Ave neighs/atom = 43.0476
Neighbor list builds = 95
Dangerous builds = 83


reset_timestep 0


#------ Make variables which I can use to check the pressure and temperature--------
compute         my_temp all temp
compute         mypress all pressure my_temp
variable        glpress equal "c_mypress"

fix             avepress all ave/time 1 100 100 c_mypress mode scalar ave one start 1000 #file ave.press
variable        presssq equal "v_glpress * v_glpress"
fix             avepresssq all ave/time 1 100 100 v_presssq mode scalar ave one start 1000 #file ave.presssq
variable        variance equal  "f_avepresssq - f_avepress*f_avepress"


#---------------SPECIFYING ENSEMBLE----------------------
fix 1 all nvt temp ${TEMP} ${TEMP} 1.0
fix 1 all nvt temp 1000 ${TEMP} 1.0
fix 1 all nvt temp 1000 1000 1.0


#----------------Run Simulation------------------------
# Do a short run to have data to average.
thermo          100
thermo_style    custom step temp pe etotal press lx ly lz v_variance

run 4000
Per MPI rank memory allocation (min/avg/max) = 2.964 | 2.964 | 2.964 Mbytes
Step Temp PotEng TotEng Press Lx Ly Lz v_variance 
       0            0   -232.68621   -232.68621   -47354.186      9.27696      9.27696      9.27696            0 
     100   0.25162068   -232.68823   -232.68621   -47331.778      9.27696      9.27696      9.27696            0 
     200   0.84132024   -232.69295   -232.68621   -47309.143      9.27696      9.27696      9.27696            0 
     300    1.4703511   -232.69799    -232.6862   -47358.971      9.27696      9.27696      9.27696            0 
     400    1.9931595   -232.70217   -232.68619   -47424.314      9.27696      9.27696      9.27696            0 
     500    2.4971988   -232.70619   -232.68618   -47561.172      9.27696      9.27696      9.27696            0 
     600    3.1296538   -232.71123   -232.68615   -47697.086      9.27696      9.27696      9.27696            0 
     700    3.8928887   -232.71731   -232.68612   -47763.177      9.27696      9.27696      9.27696            0 
     800    4.6186686   -232.72308   -232.68606   -47826.754      9.27696      9.27696      9.27696            0 
     900    5.1874999   -232.72757     -232.686   -47860.784      9.27696      9.27696      9.27696            0 
    1000     5.699541   -232.73159   -232.68591   -47886.325      9.27696      9.27696      9.27696     484.8195 
    1100     6.371108   -232.73687   -232.68581   -47699.422      9.27696      9.27696      9.27696    2720.8529 
    1200    7.2603528   -232.74387   -232.68569   -47767.333      9.27696      9.27696      9.27696    593.99027 
    1300    8.2586359   -232.75172   -232.68553   -47932.144      9.27696      9.27696      9.27696    2610.7043 
    1400    9.2447692   -232.75943   -232.68534   -48064.534      9.27696      9.27696      9.27696    962.32173 
    1500    10.258262   -232.76733   -232.68512   -48109.036      9.27696      9.27696      9.27696    2225.7593 
    1600    11.461672   -232.77671   -232.68485   -48071.242      9.27696      9.27696      9.27696    129.55859 
    1700    13.019928   -232.78887   -232.68453   -48080.853      9.27696      9.27696      9.27696    264.08539 
    1800    14.881693    -232.8034   -232.68414   -48364.345      9.27696      9.27696      9.27696    6849.7784 
    1900    16.877609   -232.81893   -232.68367    -48439.82      9.27696      9.27696      9.27696    1283.9494 
    2000    18.984489   -232.83526   -232.68312   -48402.607      9.27696      9.27696      9.27696    251.48889 
    2100    21.290123   -232.85309   -232.68247   -48452.627      9.27696      9.27696      9.27696    1560.0299 
    2200     23.90424   -232.87328    -232.6817   -48396.743      9.27696      9.27696      9.27696    511.03146 
    2300    26.840966   -232.89592   -232.68081   -48390.095      9.27696      9.27696      9.27696    375.62892 
    2400    29.946802   -232.91977   -232.67977    -48240.89      9.27696      9.27696      9.27696    3312.8414 
    2500    33.080589   -232.94369   -232.67858     -48053.4      9.27696      9.27696      9.27696    1622.3299 
    2600    36.315633   -232.96826   -232.67722   -47889.369      9.27696      9.27696      9.27696    6935.8129 
    2700    39.977898   -232.99607   -232.67568   -48116.305      9.27696      9.27696      9.27696    3566.5115 
    2800    43.870027   -233.02551   -232.67393   -48352.548      9.27696      9.27696      9.27696    6692.5672 
    2900    48.022733   -233.05683   -232.67197   -48266.856      9.27696      9.27696      9.27696    3551.5412 
    3000    52.092644   -233.08726   -232.66978   -48352.387      9.27696      9.27696      9.27696    2243.1125 
    3100    56.091436   -233.11689   -232.66736   -48383.491      9.27696      9.27696      9.27696    689.78119 
    3200    60.143195   -233.14671   -232.66472   -48510.165      9.27696      9.27696      9.27696    1995.7324 
    3300    64.233926   -233.17661   -232.66183   -48396.421      9.27696      9.27696      9.27696    1569.3592 
    3400    68.381956   -233.20674   -232.65872   -48308.121      9.27696      9.27696      9.27696    2183.8762 
    3500     72.26359   -233.23449   -232.65536   -48501.677      9.27696      9.27696      9.27696    9024.0871 
    3600    75.931865   -233.26032    -232.6518   -48632.153      9.27696      9.27696      9.27696    1742.3275 
    3700    79.217001   -233.28288   -232.64803   -48344.309      9.27696      9.27696      9.27696    5802.9377 
    3800     82.32808   -233.30386   -232.64407   -48456.835      9.27696      9.27696      9.27696    1638.2784 
    3900    85.383498   -233.32422   -232.63995   -48335.722      9.27696      9.27696      9.27696    8577.4779 
    4000     88.17151   -233.34229   -232.63567   -48280.563      9.27696      9.27696      9.27696    1523.7181 
Loop time of 0.502286 on 1 procs for 4000 steps with 63 atoms

Performance: 68.805 ns/day, 0.349 hours/ns, 7963.590 timesteps/s
100.0% CPU use with 1 MPI tasks x 1 OpenMP threads

MPI task timing breakdown:
Section |  min time  |  avg time  |  max time  |%varavg| %total
---------------------------------------------------------------
Pair    | 0.47039    | 0.47039    | 0.47039    |   0.0 | 93.65
Neigh   | 0.0026456  | 0.0026456  | 0.0026456  |   0.0 |  0.53
Comm    | 0.010079   | 0.010079   | 0.010079   |   0.0 |  2.01
Output  | 0.00040265 | 0.00040265 | 0.00040265 |   0.0 |  0.08
Modify  | 0.015893   | 0.015893   | 0.015893   |   0.0 |  3.16
Other   |            | 0.002875   |            |       |  0.57

Nlocal:    63 ave 63 max 63 min
Histogram: 1 0 0 0 0 0 0 0 0 0
Nghost:    804 ave 804 max 804 min
Histogram: 1 0 0 0 0 0 0 0 0 0
Neighs:    2694 ave 2694 max 2694 min
Histogram: 1 0 0 0 0 0 0 0 0 0

Total # of neighbors = 2694
Ave neighs/atom = 42.7619
Neighbor list builds = 33
Dangerous builds = 0


# Begin lopping until the variance in the pressure is below a given value

variable        loopNum loop 1000

label           loop
if              "${variance} > 1000" then "run 2000" "next loopNum" "jump SELF loop" else "print 'continue'"
run 2000
Per MPI rank memory allocation (min/avg/max) = 2.964 | 2.964 | 2.964 Mbytes
Step Temp PotEng TotEng Press Lx Ly Lz v_variance 
    4000     88.17151   -233.34229   -232.63567   -48280.563      9.27696      9.27696      9.27696    1523.7181 
    4100    90.555397   -233.35698   -232.63126   -48082.919      9.27696      9.27696      9.27696    10172.966 
    4200    92.524217   -233.36825   -232.62675   -48154.866      9.27696      9.27696      9.27696    4522.4448 
    4300    94.404437   -233.37871   -232.62215   -48186.186      9.27696      9.27696      9.27696    5409.0671 
    4400    96.137038   -233.38793   -232.61747   -47903.666      9.27696      9.27696      9.27696    6280.1316 
    4500    97.864561   -233.39704   -232.61274   -48118.823      9.27696      9.27696      9.27696     10664.78 
    4600    99.672125   -233.40674   -232.60795   -47972.667      9.27696      9.27696      9.27696    1473.9152 
    4700    101.59201   -233.41728    -232.6031    -48191.35      9.27696      9.27696      9.27696    4111.7183 
    4800    103.57656   -233.42829   -232.59821   -48447.099      9.27696      9.27696      9.27696    8767.4503 
    4900    105.81376   -233.44127   -232.59327    -48441.73      9.27696      9.27696      9.27696    14924.274 
    5000     108.3853   -233.45688   -232.58826   -48879.395      9.27696      9.27696      9.27696    20323.829 
    5100     111.2728   -233.47495   -232.58319   -49017.284      9.27696      9.27696      9.27696    3527.7022 
    5200    114.47409   -233.49545   -232.57804   -49171.928      9.27696      9.27696      9.27696    6829.9256 
    5300    117.86702    -233.5174    -232.5728   -49684.754      9.27696      9.27696      9.27696    18312.607 
    5400    121.25071   -233.53919   -232.56747   -49830.694      9.27696      9.27696      9.27696    4913.8889 
    5500    124.35058   -233.55863   -232.56207   -50062.481      9.27696      9.27696      9.27696     6309.229 
    5600    126.52832   -233.57064   -232.55662   -50037.741      9.27696      9.27696      9.27696    5028.7707 
    5700    127.31223   -233.57147   -232.55117   -49828.116      9.27696      9.27696      9.27696    4179.3724 
    5800    126.47918   -233.55943    -232.5458   -49677.256      9.27696      9.27696      9.27696    20165.084 
    5900    125.12075   -233.54328   -232.54055   -49773.714      9.27696      9.27696      9.27696     5201.143 
    6000    124.67807   -233.53458    -232.5354   -49722.396      9.27696      9.27696      9.27696    4404.1841 
Loop time of 0.253021 on 1 procs for 2000 steps with 63 atoms

Performance: 68.295 ns/day, 0.351 hours/ns, 7904.480 timesteps/s
100.0% CPU use with 1 MPI tasks x 1 OpenMP threads

MPI task timing breakdown:
Section |  min time  |  avg time  |  max time  |%varavg| %total
---------------------------------------------------------------
Pair    | 0.23427    | 0.23427    | 0.23427    |   0.0 | 92.59
Neigh   | 0.0026525  | 0.0026525  | 0.0026525  |   0.0 |  1.05
Comm    | 0.0051853  | 0.0051853  | 0.0051853  |   0.0 |  2.05
Output  | 0.00017653 | 0.00017653 | 0.00017653 |   0.0 |  0.07
Modify  | 0.0093542  | 0.0093542  | 0.0093542  |   0.0 |  3.70
Other   |            | 0.001387   |            |       |  0.55

Nlocal:    63 ave 63 max 63 min
Histogram: 1 0 0 0 0 0 0 0 0 0
Nghost:    792 ave 792 max 792 min
Histogram: 1 0 0 0 0 0 0 0 0 0
Neighs:    2676 ave 2676 max 2676 min
Histogram: 1 0 0 0 0 0 0 0 0 0

Total # of neighbors = 2676
Ave neighs/atom = 42.4762
Neighbor list builds = 34
Dangerous builds = 0
next loopNum
jump SELF loop
if              "${variance} > 1000" then "run 2000" "next loopNum" "jump SELF loop" else "print 'continue'"
run 2000
Per MPI rank memory allocation (min/avg/max) = 2.964 | 2.964 | 2.964 Mbytes
Step Temp PotEng TotEng Press Lx Ly Lz v_variance 
    6000    124.67807   -233.53458    -232.5354   -49722.396      9.27696      9.27696      9.27696    4404.1841 
    6100    126.85116   -233.54687   -232.53026   -49850.233      9.27696      9.27696      9.27696    5769.0061 
    6200    132.58813   -233.58761   -232.52503   -50280.927      9.27696      9.27696      9.27696     21770.33 
    6300    141.72281   -233.65533   -232.51954    -50956.91      9.27696      9.27696      9.27696    25192.882 
    6400    153.05139   -233.74027   -232.51369   -51534.542      9.27696      9.27696      9.27696    29097.743 
    6500    165.10085   -233.83057   -232.50743   -51964.835      9.27696      9.27696      9.27696    9020.9944 
    6600    176.68423   -233.91673   -232.50076   -52388.952      9.27696      9.27696      9.27696    15115.713 
    6700    187.11413   -233.99326   -232.49371   -52979.772      9.27696      9.27696      9.27696     35584.74 
    6800    194.89014   -234.04822   -232.48634   -53725.568      9.27696      9.27696      9.27696     29866.13 
    6900      197.144   -234.05877   -232.47883   -53766.953      9.27696      9.27696      9.27696    1929.1408 
    7000    191.59435   -234.00687    -232.4714   -53310.933      9.27696      9.27696      9.27696    23792.912 
    7100    177.64301   -233.88804   -232.46438   -52677.056      9.27696      9.27696      9.27696    52283.156 
    7200    158.19031   -233.72579   -232.45803    -51601.74      9.27696      9.27696      9.27696    96601.506 
    7300    139.74356   -233.57234   -232.45242   -51048.337      9.27696      9.27696      9.27696    38418.274 
    7400    128.67939   -233.47863   -232.44738   -50572.935      9.27696      9.27696      9.27696     28950.99 
    7500    127.52595   -233.46456   -232.44255   -50332.093      9.27696      9.27696      9.27696    5131.9999 
    7600    133.72958   -233.50933    -232.4376   -51007.774      9.27696      9.27696      9.27696     61515.54 
    7700     143.6511   -233.58355   -232.43231    -51530.63      9.27696      9.27696      9.27696    22461.066 
    7800    154.42142   -233.66415    -232.4266   -51754.791      9.27696      9.27696      9.27696    2545.6811 
    7900    164.15375   -233.73601   -232.42046   -52054.745      9.27696      9.27696      9.27696    8193.3718 
    8000    170.69526   -233.78195   -232.41398    -52305.24      9.27696      9.27696      9.27696    11192.136 
Loop time of 0.259741 on 1 procs for 2000 steps with 63 atoms

Performance: 66.528 ns/day, 0.361 hours/ns, 7699.985 timesteps/s
100.0% CPU use with 1 MPI tasks x 1 OpenMP threads

MPI task timing breakdown:
Section |  min time  |  avg time  |  max time  |%varavg| %total
---------------------------------------------------------------
Pair    | 0.24011    | 0.24011    | 0.24011    |   0.0 | 92.44
Neigh   | 0.0032458  | 0.0032458  | 0.0032458  |   0.0 |  1.25
Comm    | 0.0052468  | 0.0052468  | 0.0052468  |   0.0 |  2.02
Output  | 0.00019114 | 0.00019114 | 0.00019114 |   0.0 |  0.07
Modify  | 0.0094631  | 0.0094631  | 0.0094631  |   0.0 |  3.64
Other   |            | 0.001484   |            |       |  0.57

Nlocal:    63 ave 63 max 63 min
Histogram: 1 0 0 0 0 0 0 0 0 0
Nghost:    794 ave 794 max 794 min
Histogram: 1 0 0 0 0 0 0 0 0 0
Neighs:    2667 ave 2667 max 2667 min
Histogram: 1 0 0 0 0 0 0 0 0 0

Total # of neighbors = 2667
Ave neighs/atom = 42.3333
Neighbor list builds = 42
Dangerous builds = 0
next loopNum
jump SELF loop
if              "${variance} > 1000" then "run 2000" "next loopNum" "jump SELF loop" else "print 'continue'"
run 2000
Per MPI rank memory allocation (min/avg/max) = 2.964 | 2.964 | 2.964 Mbytes
Step Temp PotEng TotEng Press Lx Ly Lz v_variance 
    8000    170.69526   -233.78195   -232.41398    -52305.24      9.27696      9.27696      9.27696    11192.136 
    8100    173.18237   -233.79519   -232.40729   -52083.368      9.27696      9.27696      9.27696    12406.687 
    8200    172.46921   -233.78272   -232.40053   -51893.056      9.27696      9.27696      9.27696    12001.936 
    8300     170.8885   -233.76331   -232.39379   -51609.269      9.27696      9.27696      9.27696    7538.1785 
    8400    170.10432   -233.75029   -232.38705   -51474.861      9.27696      9.27696      9.27696    20489.824 
    8500    169.83801   -233.74139   -232.38028   -51429.907      9.27696      9.27696      9.27696    2068.5329 
    8600    169.23177   -233.72972   -232.37348   -51278.265      9.27696      9.27696      9.27696    8229.9053 
    8700     167.2407   -233.70697   -232.36668   -51003.663      9.27696      9.27696      9.27696    6153.4893 
    8800    164.62321   -233.67924   -232.35992    -51221.25      9.27696      9.27696      9.27696    5453.1719 
    8900    163.74691   -233.66548   -232.35319   -51511.618      9.27696      9.27696      9.27696    12229.076 
    9000    166.96632   -233.68446   -232.34637   -52138.153      9.27696      9.27696      9.27696    45107.156 
    9100    174.43503    -233.7372   -232.33925   -52709.596      9.27696      9.27696      9.27696     36782.05 
    9200    183.76701   -233.80444   -232.33171   -52790.286      9.27696      9.27696      9.27696    4642.0673 
    9300    191.52947   -233.85868   -232.32374   -53552.843      9.27696      9.27696      9.27696    77703.791 
    9400    194.07864   -233.87085   -232.31548   -53583.287      9.27696      9.27696      9.27696     1155.421 
    9500    190.18013   -233.83132   -232.30719   -53120.738      9.27696      9.27696      9.27696    28971.284 
    9600    181.88024   -233.75671    -232.2991   -52690.031      9.27696      9.27696      9.27696    8726.7683 
    9700    174.69392   -233.69133   -232.29131   -52324.452      9.27696      9.27696      9.27696    20286.653 
    9800    172.15527   -233.66334   -232.28367   -51672.366      9.27696      9.27696      9.27696    48418.094 
    9900     171.5246   -233.65063   -232.27601    -51295.21      9.27696      9.27696      9.27696     16249.53 
   10000    166.67305   -233.60414    -232.2684   -50713.188      9.27696      9.27696      9.27696    43125.821 
Loop time of 0.256484 on 1 procs for 2000 steps with 63 atoms

Performance: 67.373 ns/day, 0.356 hours/ns, 7797.764 timesteps/s
100.0% CPU use with 1 MPI tasks x 1 OpenMP threads

MPI task timing breakdown:
Section |  min time  |  avg time  |  max time  |%varavg| %total
---------------------------------------------------------------
Pair    | 0.23661    | 0.23661    | 0.23661    |   0.0 | 92.25
Neigh   | 0.0033376  | 0.0033376  | 0.0033376  |   0.0 |  1.30
Comm    | 0.0053095  | 0.0053095  | 0.0053095  |   0.0 |  2.07
Output  | 0.00021318 | 0.00021318 | 0.00021318 |   0.0 |  0.08
Modify  | 0.0095245  | 0.0095245  | 0.0095245  |   0.0 |  3.71
Other   |            | 0.001487   |            |       |  0.58

Nlocal:    63 ave 63 max 63 min
Histogram: 1 0 0 0 0 0 0 0 0 0
Nghost:    791 ave 791 max 791 min
Histogram: 1 0 0 0 0 0 0 0 0 0
Neighs:    2682 ave 2682 max 2682 min
Histogram: 1 0 0 0 0 0 0 0 0 0

Total # of neighbors = 2682
Ave neighs/atom = 42.5714
Neighbor list builds = 41
Dangerous builds = 0
next loopNum
jump SELF loop
if              "${variance} > 1000" then "run 2000" "next loopNum" "jump SELF loop" else "print 'continue'"
run 2000
Per MPI rank memory allocation (min/avg/max) = 2.964 | 2.964 | 2.964 Mbytes
Step Temp PotEng TotEng Press Lx Ly Lz v_variance 
   10000    166.67305   -233.60414    -232.2684   -50713.188      9.27696      9.27696      9.27696    43125.821 
   10100    156.20445   -233.51292   -232.26108   -50104.588      9.27696      9.27696      9.27696    20488.858 
   10200     145.5468   -233.42064   -232.25421   -49540.633      9.27696      9.27696      9.27696    46896.629 
   10300    142.40004   -233.38884   -232.24762   -49183.939      9.27696      9.27696      9.27696    8955.4975 
   10400     149.8107   -233.44149   -232.24088   -49583.446      9.27696      9.27696      9.27696    30112.099 
   10500    164.05284    -233.5483   -232.23356   -50425.758      9.27696      9.27696      9.27696    77845.193 
   10600    178.95731   -233.65966   -232.22547   -51008.095      9.27696      9.27696      9.27696    25026.234 
   10700     188.9882   -233.73128    -232.2167   -51616.217      9.27696      9.27696      9.27696    25612.397 
   10800    192.02937   -233.74654   -232.20759   -52245.682      9.27696      9.27696      9.27696    15304.955 
   10900    190.32934   -233.72372   -232.19839   -51813.186      9.27696      9.27696      9.27696    20159.337 
   11000    189.26718   -233.70605   -232.18924   -51971.992      9.27696      9.27696      9.27696    8261.4562 
   11100    193.63855   -233.73181   -232.17997   -51872.825      9.27696      9.27696      9.27696    3092.1238 
   11200    203.19303    -233.7987   -232.17029   -51814.272      9.27696      9.27696      9.27696    11549.195 
   11300    213.17171   -233.86845   -232.16007   -51797.112      9.27696      9.27696      9.27696    9729.4108 
   11400    218.96275    -233.9042    -232.1494   -51916.884      9.27696      9.27696      9.27696    5958.0555 
   11500    219.68616   -233.89913   -232.13854   -51377.633      9.27696      9.27696      9.27696    37639.315 
   11600    217.88697   -233.87385   -232.12768   -50964.779      9.27696      9.27696      9.27696    12475.601 
   11700    216.99062   -233.85586   -232.11687   -50493.614      9.27696      9.27696      9.27696    14060.855 
   11800    218.53129   -233.85733   -232.10599   -49696.971      9.27696      9.27696      9.27696    47525.131 
   11900    222.93524   -233.88158   -232.09494   -49435.022      9.27696      9.27696      9.27696    6908.4149 
   12000    231.12624   -233.93582   -232.08355   -49174.403      9.27696      9.27696      9.27696    9649.3427 
Loop time of 0.25938 on 1 procs for 2000 steps with 63 atoms

Performance: 66.621 ns/day, 0.360 hours/ns, 7710.709 timesteps/s
100.0% CPU use with 1 MPI tasks x 1 OpenMP threads

MPI task timing breakdown:
Section |  min time  |  avg time  |  max time  |%varavg| %total
---------------------------------------------------------------
Pair    | 0.23956    | 0.23956    | 0.23956    |   0.0 | 92.36
Neigh   | 0.0034731  | 0.0034731  | 0.0034731  |   0.0 |  1.34
Comm    | 0.0052343  | 0.0052343  | 0.0052343  |   0.0 |  2.02
Output  | 0.00022008 | 0.00022008 | 0.00022008 |   0.0 |  0.08
Modify  | 0.0094778  | 0.0094778  | 0.0094778  |   0.0 |  3.65
Other   |            | 0.001419   |            |       |  0.55

Nlocal:    63 ave 63 max 63 min
Histogram: 1 0 0 0 0 0 0 0 0 0
Nghost:    795 ave 795 max 795 min
Histogram: 1 0 0 0 0 0 0 0 0 0
Neighs:    2683 ave 2683 max 2683 min
Histogram: 1 0 0 0 0 0 0 0 0 0

Total # of neighbors = 2683
Ave neighs/atom = 42.5873
Neighbor list builds = 43
Dangerous builds = 0
next loopNum
jump SELF loop
if              "${variance} > 1000" then "run 2000" "next loopNum" "jump SELF loop" else "print 'continue'"
run 2000
Per MPI rank memory allocation (min/avg/max) = 2.964 | 2.964 | 2.964 Mbytes
Step Temp PotEng TotEng Press Lx Ly Lz v_variance 
   12000    231.12624   -233.93582   -232.08355   -49174.403      9.27696      9.27696      9.27696    9649.3427 
   12100    243.60308   -234.02388   -232.07161   -49349.625      9.27696      9.27696      9.27696     16834.67 
   12200    257.04987     -234.119   -232.05897   -48851.318      9.27696      9.27696      9.27696    26049.155 
   12300    265.18124   -234.17094   -232.04574   -49316.689      9.27696      9.27696      9.27696    9530.7331 
   12400    263.11173   -234.14093   -232.03232   -48573.949      9.27696      9.27696      9.27696      34912.4 
   12500    251.47305   -234.03459   -232.01925   -48064.628      9.27696      9.27696      9.27696    28871.399 
   12600    239.28107   -233.92445   -232.00682   -47493.059      9.27696      9.27696      9.27696    60466.918 
   12700    236.85547   -233.89296   -231.99477   -47085.965      9.27696      9.27696      9.27696    28749.976 
   12800    247.73853   -233.96788   -231.98247   -47740.684      9.27696      9.27696      9.27696    43418.149 
   12900    265.04713   -234.09352    -231.9694   -48264.251      9.27696      9.27696      9.27696    19130.829 
   13000    279.77024   -234.19759   -231.95548   -48753.692      9.27696      9.27696      9.27696    23706.809 
   13100    287.68747   -234.24653   -231.94096   -49006.821      9.27696      9.27696      9.27696    7886.7316 
   13200    288.42723   -234.23771   -231.92622   -49221.502      9.27696      9.27696      9.27696    1324.0355 
   13300    283.13975   -234.18072    -231.9116   -48819.589      9.27696      9.27696      9.27696    33007.057 
   13400    272.41938   -234.08059   -231.89739   -48508.294      9.27696      9.27696      9.27696    36368.775 
   13500    257.95625   -233.95113   -231.88383   -48192.107      9.27696      9.27696      9.27696    16225.626 
   13600    243.02332   -233.81864   -231.87102   -47653.109      9.27696      9.27696      9.27696    42298.049 
   13700    228.48888   -233.69008   -231.85894   -47517.561      9.27696      9.27696      9.27696    10797.355 
   13800    214.14813   -233.56379   -231.84758   -47186.756      9.27696      9.27696      9.27696    44970.365 
   13900    201.98228    -233.4556   -231.83689   -47408.873      9.27696      9.27696      9.27696    8574.3457 
   14000    195.92376   -233.39681   -231.82665    -47168.77      9.27696      9.27696      9.27696    8577.9135 
Loop time of 0.259406 on 1 procs for 2000 steps with 63 atoms

Performance: 66.614 ns/day, 0.360 hours/ns, 7709.928 timesteps/s
100.0% CPU use with 1 MPI tasks x 1 OpenMP threads

MPI task timing breakdown:
Section |  min time  |  avg time  |  max time  |%varavg| %total
---------------------------------------------------------------
Pair    | 0.23837    | 0.23837    | 0.23837    |   0.0 | 91.89
Neigh   | 0.0040355  | 0.0040355  | 0.0040355  |   0.0 |  1.56
Comm    | 0.005459   | 0.005459   | 0.005459   |   0.0 |  2.10
Output  | 0.00020864 | 0.00020864 | 0.00020864 |   0.0 |  0.08
Modify  | 0.009881   | 0.009881   | 0.009881   |   0.0 |  3.81
Other   |            | 0.001456   |            |       |  0.56

Nlocal:    63 ave 63 max 63 min
Histogram: 1 0 0 0 0 0 0 0 0 0
Nghost:    800 ave 800 max 800 min
Histogram: 1 0 0 0 0 0 0 0 0 0
Neighs:    2680 ave 2680 max 2680 min
Histogram: 1 0 0 0 0 0 0 0 0 0

Total # of neighbors = 2680
Ave neighs/atom = 42.5397
Neighbor list builds = 51
Dangerous builds = 0
next loopNum
jump SELF loop
if              "${variance} > 1000" then "run 2000" "next loopNum" "jump SELF loop" else "print 'continue'"
run 2000
Per MPI rank memory allocation (min/avg/max) = 2.964 | 2.964 | 2.964 Mbytes
Step Temp PotEng TotEng Press Lx Ly Lz v_variance 
   14000    195.92376   -233.39681   -231.82665    -47168.77      9.27696      9.27696      9.27696    8577.9135 
   14100    197.00298   -233.39532   -231.81652   -47364.587      9.27696      9.27696      9.27696    19196.241 
   14200    201.93691   -233.42452   -231.80618   -47551.958      9.27696      9.27696      9.27696    5201.0421 
   14300    206.31157   -233.44895   -231.79554   -47819.052      9.27696      9.27696      9.27696    8167.8716 
   14400    207.49407   -233.44763   -231.78474   -47685.771      9.27696      9.27696      9.27696    3603.8626 
   14500     208.4033   -233.44405   -231.77388   -47590.525      9.27696      9.27696      9.27696    10192.759 
   14600    214.62007   -233.48284   -231.76284   -47495.566      9.27696      9.27696      9.27696    11709.425 
   14700    228.43579   -233.58195   -231.75124   -48267.052      9.27696      9.27696      9.27696    84415.119 
   14800    247.79405   -233.72459   -231.73873   -49047.529      9.27696      9.27696      9.27696    62691.146 
   14900    268.52476   -233.87714   -231.72515   -49551.231      9.27696      9.27696      9.27696    18558.977 
   15000    286.62554   -234.00758   -231.71052   -50827.283      9.27696      9.27696      9.27696    120196.91 
   15100    298.19495   -234.08488    -231.6951   -51382.272      9.27696      9.27696      9.27696    40578.055 
   15200      301.401   -234.09477   -231.67931    -51136.12      9.27696      9.27696      9.27696     29091.98 
   15300    297.56917   -234.04831   -231.66355   -50915.992      9.27696      9.27696      9.27696    20314.163 
   15400    288.68109   -233.96166   -231.64814    -50134.28      9.27696      9.27696      9.27696    71416.353 
   15500    277.35459   -233.85601   -231.63326    -49653.04      9.27696      9.27696      9.27696    31816.102 
   15600     265.3674   -233.74568   -231.61899   -49235.076      9.27696      9.27696      9.27696    23048.224 
   15700    255.98294   -233.65678    -231.6053   -48944.264      9.27696      9.27696      9.27696    6233.2621 
   15800    252.41096    -233.6148   -231.59195   -48884.402      9.27696      9.27696      9.27696    1462.6368 
   15900    255.49766    -233.6262    -231.5786   -48667.244      9.27696      9.27696      9.27696    4784.2734 
   16000    262.18953   -233.66618   -231.56496   -49320.035      9.27696      9.27696      9.27696    48312.481 
Loop time of 0.259124 on 1 procs for 2000 steps with 63 atoms

Performance: 66.686 ns/day, 0.360 hours/ns, 7718.303 timesteps/s
100.0% CPU use with 1 MPI tasks x 1 OpenMP threads

MPI task timing breakdown:
Section |  min time  |  avg time  |  max time  |%varavg| %total
---------------------------------------------------------------
Pair    | 0.23836    | 0.23836    | 0.23836    |   0.0 | 91.99
Neigh   | 0.0040756  | 0.0040756  | 0.0040756  |   0.0 |  1.57
Comm    | 0.0053943  | 0.0053943  | 0.0053943  |   0.0 |  2.08
Output  | 0.00020537 | 0.00020537 | 0.00020537 |   0.0 |  0.08
Modify  | 0.0096587  | 0.0096587  | 0.0096587  |   0.0 |  3.73
Other   |            | 0.001432   |            |       |  0.55

Nlocal:    63 ave 63 max 63 min
Histogram: 1 0 0 0 0 0 0 0 0 0
Nghost:    786 ave 786 max 786 min
Histogram: 1 0 0 0 0 0 0 0 0 0
Neighs:    2698 ave 2698 max 2698 min
Histogram: 1 0 0 0 0 0 0 0 0 0

Total # of neighbors = 2698
Ave neighs/atom = 42.8254
Neighbor list builds = 47
Dangerous builds = 0
next loopNum
jump SELF loop
if              "${variance} > 1000" then "run 2000" "next loopNum" "jump SELF loop" else "print 'continue'"
run 2000
Per MPI rank memory allocation (min/avg/max) = 2.964 | 2.964 | 2.964 Mbytes
Step Temp PotEng TotEng Press Lx Ly Lz v_variance 
   16000    262.18953   -233.66618   -231.56496   -49320.035      9.27696      9.27696      9.27696    48312.481 
   16100    269.76705   -233.71287   -231.55092   -49329.742      9.27696      9.27696      9.27696    18251.713 
   16200    278.62909   -233.76941   -231.53644   -49561.533      9.27696      9.27696      9.27696    9939.2354 
   16300      289.409   -233.84079   -231.52142   -49830.395      9.27696      9.27696      9.27696    29461.909 
   16400    298.52049   -233.89824   -231.50586   -49641.575      9.27696      9.27696      9.27696     3231.899 
   16500    299.83834   -233.89294   -231.48999   -49262.502      9.27696      9.27696      9.27696    7457.8679 
   16600    291.12423   -233.80744   -231.47434   -48316.532      9.27696      9.27696      9.27696    86837.568 
   16700    279.03406   -233.69548   -231.45927   -47832.148      9.27696      9.27696      9.27696     21440.31 
   16800    274.99067   -233.64847   -231.44466   -48043.229      9.27696      9.27696      9.27696    26948.794 
   16900    284.32597   -233.70853    -231.4299   -48229.316      9.27696      9.27696      9.27696    8965.2761 
   17000    299.26128   -233.81273   -231.41441    -48741.58      9.27696      9.27696      9.27696    30445.017 
   17100    305.77423   -233.84883   -231.39832   -48751.661      9.27696      9.27696      9.27696    3785.4929 
   17200    298.33043   -233.77311   -231.38225   -47943.866      9.27696      9.27696      9.27696    44154.261 
   17300    285.53041   -233.65504   -231.36676   -47049.956      9.27696      9.27696      9.27696    97398.946 
   17400    278.99274    -233.5877   -231.35182   -46989.855      9.27696      9.27696      9.27696    37485.332 
   17500    280.62103    -233.5859   -231.33697   -46663.255      9.27696      9.27696      9.27696    7582.3908 
   17600    285.01515   -233.60608   -231.32193   -47009.515      9.27696      9.27696      9.27696    14624.729 
   17700    290.63177   -233.63578   -231.30662   -47087.305      9.27696      9.27696      9.27696    6120.7625 
   17800    301.53563   -233.70742   -231.29087   -47763.216      9.27696      9.27696      9.27696    56117.869 
   17900    319.97515   -233.83866   -231.27434   -48350.713      9.27696      9.27696      9.27696    31054.657 
   18000    340.88141   -233.98858   -231.25671   -49106.582      9.27696      9.27696      9.27696     72729.21 
Loop time of 0.259451 on 1 procs for 2000 steps with 63 atoms

Performance: 66.602 ns/day, 0.360 hours/ns, 7708.586 timesteps/s
100.0% CPU use with 1 MPI tasks x 1 OpenMP threads

MPI task timing breakdown:
Section |  min time  |  avg time  |  max time  |%varavg| %total
---------------------------------------------------------------
Pair    | 0.23705    | 0.23705    | 0.23705    |   0.0 | 91.37
Neigh   | 0.0041571  | 0.0041571  | 0.0041571  |   0.0 |  1.60
Comm    | 0.0053412  | 0.0053412  | 0.0053412  |   0.0 |  2.06
Output  | 0.00020927 | 0.00020927 | 0.00020927 |   0.0 |  0.08
Modify  | 0.0096786  | 0.0096786  | 0.0096786  |   0.0 |  3.73
Other   |            | 0.003017   |            |       |  1.16

Nlocal:    63 ave 63 max 63 min
Histogram: 1 0 0 0 0 0 0 0 0 0
Nghost:    793 ave 793 max 793 min
Histogram: 1 0 0 0 0 0 0 0 0 0
Neighs:    2661 ave 2661 max 2661 min
Histogram: 1 0 0 0 0 0 0 0 0 0

Total # of neighbors = 2661
Ave neighs/atom = 42.2381
Neighbor list builds = 51
Dangerous builds = 0
next loopNum
jump SELF loop
if              "${variance} > 1000" then "run 2000" "next loopNum" "jump SELF loop" else "print 'continue'"
run 2000
Per MPI rank memory allocation (min/avg/max) = 2.964 | 2.964 | 2.964 Mbytes
Step Temp PotEng TotEng Press Lx Ly Lz v_variance 
   18000    340.88141   -233.98858   -231.25671   -49106.582      9.27696      9.27696      9.27696     72729.21 
   18100    355.98499   -234.09101    -231.2381   -49762.232      9.27696      9.27696      9.27696    41990.186 
   18200    359.62379   -234.10108     -231.219   -49675.285      9.27696      9.27696      9.27696    2252.4106 
   18300    352.57509   -234.02562   -231.20003   -49511.145      9.27696      9.27696      9.27696    21232.129 
   18400    341.84006   -233.92114   -231.18159   -48874.168      9.27696      9.27696      9.27696    57268.748 
   18500    335.93904   -233.85587   -231.16362   -48531.327      9.27696      9.27696      9.27696    11135.926 
   18600    337.05877     -233.847   -231.14577   -48292.941      9.27696      9.27696      9.27696    6383.5331 
   18700     341.0999   -233.86138   -231.12776   -48546.926      9.27696      9.27696      9.27696    10605.936 
   18800     342.3032   -233.85285   -231.10959   -49070.039      9.27696      9.27696      9.27696    26397.884 
   18900    337.47051   -233.79603    -231.0915    -48909.94      9.27696      9.27696      9.27696    13991.358 
   19000    326.81781     -233.693   -231.07384   -48700.479      9.27696      9.27696      9.27696    5788.9399 
   19100    315.36027   -233.58411   -231.05678   -48121.425      9.27696      9.27696      9.27696    23934.221 
   19200    310.02753   -233.52479   -231.04019   -47764.496      9.27696      9.27696      9.27696    10795.211 
   19300    315.47703   -233.55184   -231.02357   -47667.582      9.27696      9.27696      9.27696    12892.849 
   19400    331.62445   -233.66405   -231.00637   -48246.401      9.27696      9.27696      9.27696    53334.075 
   19500    353.46902   -233.82086   -230.98811   -48833.484      9.27696      9.27696      9.27696    24003.956 
   19600    370.39416   -233.93714   -230.96876   -49174.787      9.27696      9.27696      9.27696    5904.2945 
   19700    370.94731   -233.92171   -230.94889   -48870.094      9.27696      9.27696      9.27696    11905.975 
   19800    353.02239    -233.7587   -230.92953   -47790.554      9.27696      9.27696      9.27696    80153.024 
   19900    327.67729   -233.53745   -230.91141   -46645.352      9.27696      9.27696      9.27696    104668.72 
   20000    309.07682   -233.37147   -230.89449   -45401.068      9.27696      9.27696      9.27696    136664.37 
Loop time of 0.257138 on 1 procs for 2000 steps with 63 atoms

Performance: 67.201 ns/day, 0.357 hours/ns, 7777.937 timesteps/s
100.0% CPU use with 1 MPI tasks x 1 OpenMP threads

MPI task timing breakdown:
Section |  min time  |  avg time  |  max time  |%varavg| %total
---------------------------------------------------------------
Pair    | 0.23589    | 0.23589    | 0.23589    |   0.0 | 91.74
Neigh   | 0.0046016  | 0.0046016  | 0.0046016  |   0.0 |  1.79
Comm    | 0.0054435  | 0.0054435  | 0.0054435  |   0.0 |  2.12
Output  | 0.00020814 | 0.00020814 | 0.00020814 |   0.0 |  0.08
Modify  | 0.0095326  | 0.0095326  | 0.0095326  |   0.0 |  3.71
Other   |            | 0.001465   |            |       |  0.57

Nlocal:    63 ave 63 max 63 min
Histogram: 1 0 0 0 0 0 0 0 0 0
Nghost:    793 ave 793 max 793 min
Histogram: 1 0 0 0 0 0 0 0 0 0
Neighs:    2684 ave 2684 max 2684 min
Histogram: 1 0 0 0 0 0 0 0 0 0

Total # of neighbors = 2684
Ave neighs/atom = 42.6032
Neighbor list builds = 55
Dangerous builds = 0
next loopNum
jump SELF loop
if              "${variance} > 1000" then "run 2000" "next loopNum" "jump SELF loop" else "print 'continue'"
run 2000
Per MPI rank memory allocation (min/avg/max) = 2.964 | 2.964 | 2.964 Mbytes
Step Temp PotEng TotEng Press Lx Ly Lz v_variance 
   20000    309.07682   -233.37147   -230.89449   -45401.068      9.27696      9.27696      9.27696    136664.37 
   20100    303.01404    -233.3066   -230.87821   -44860.866      9.27696      9.27696      9.27696    21282.583 
   20200    308.52466   -233.33445   -230.86189   -44640.468      9.27696      9.27696      9.27696    16215.359 
   20300    321.36537   -233.42051   -230.84505   -45235.154      9.27696      9.27696      9.27696    76455.375 
   20400    336.66813   -233.52551   -230.82741   -45598.311      9.27696      9.27696      9.27696    10458.616 
   20500    349.52339    -233.6101   -230.80897   -45235.774      9.27696      9.27696      9.27696    16123.234 
   20600     357.1588    -233.6523   -230.78998   -44787.863      9.27696      9.27696      9.27696    13155.199 
   20700    363.74402   -233.68574   -230.77065   -44315.013      9.27696      9.27696      9.27696    16421.119 
   20800    377.43775   -233.77564    -230.7508   -44835.008      9.27696      9.27696      9.27696    42592.326 
   20900    399.28291   -233.92988   -230.72998   -45534.668      9.27696      9.27696      9.27696    62128.884 
   21000    418.15096   -234.05914   -230.70802   -46123.233      9.27696      9.27696      9.27696    30905.667 
   21100    421.00399   -234.05945   -230.68547   -46489.834      9.27696      9.27696      9.27696    20936.501 
   21200    405.79932   -233.91544   -230.66331   -46233.479      9.27696      9.27696      9.27696     3491.306 
   21300    385.07228   -233.72822    -230.6422   -45251.973      9.27696      9.27696      9.27696    99261.238 
   21400     373.7266    -233.6171   -230.62201   -44831.349      9.27696      9.27696      9.27696    19764.776 
   21500    376.73982   -233.62127   -230.60203   -45027.202      9.27696      9.27696      9.27696    2552.6083 
   21600    385.70825   -233.67281   -230.58169   -45000.061      9.27696      9.27696      9.27696    3810.6489 
   21700    391.64096   -233.69958   -230.56092   -45114.212      9.27696      9.27696      9.27696    7763.5695 
   21800    393.41634   -233.69287   -230.53998   -45207.953      9.27696      9.27696      9.27696    25754.159 
   21900    392.02588   -233.66076   -230.51901   -45314.595      9.27696      9.27696      9.27696    3839.6719 
   22000    387.86594   -233.60662   -230.49821   -45319.076      9.27696      9.27696      9.27696    6134.2241 
Loop time of 0.257726 on 1 procs for 2000 steps with 63 atoms

Performance: 67.048 ns/day, 0.358 hours/ns, 7760.179 timesteps/s
100.0% CPU use with 1 MPI tasks x 1 OpenMP threads

MPI task timing breakdown:
Section |  min time  |  avg time  |  max time  |%varavg| %total
---------------------------------------------------------------
Pair    | 0.23595    | 0.23595    | 0.23595    |   0.0 | 91.55
Neigh   | 0.0050662  | 0.0050662  | 0.0050662  |   0.0 |  1.97
Comm    | 0.0054475  | 0.0054475  | 0.0054475  |   0.0 |  2.11
Output  | 0.00020847 | 0.00020847 | 0.00020847 |   0.0 |  0.08
Modify  | 0.0096073  | 0.0096073  | 0.0096073  |   0.0 |  3.73
Other   |            | 0.00145    |            |       |  0.56

Nlocal:    63 ave 63 max 63 min
Histogram: 1 0 0 0 0 0 0 0 0 0
Nghost:    802 ave 802 max 802 min
Histogram: 1 0 0 0 0 0 0 0 0 0
Neighs:    2677 ave 2677 max 2677 min
Histogram: 1 0 0 0 0 0 0 0 0 0

Total # of neighbors = 2677
Ave neighs/atom = 42.4921
Neighbor list builds = 62
Dangerous builds = 0
next loopNum
jump SELF loop
if              "${variance} > 1000" then "run 2000" "next loopNum" "jump SELF loop" else "print 'continue'"
run 2000
Per MPI rank memory allocation (min/avg/max) = 2.964 | 2.964 | 2.964 Mbytes
Step Temp PotEng TotEng Press Lx Ly Lz v_variance 
   22000    387.86594   -233.60662   -230.49821   -45319.076      9.27696      9.27696      9.27696    6134.2241 
   22100    385.93305   -233.57052    -230.4776   -45631.867      9.27696      9.27696      9.27696     8436.781 
   22200    391.64336   -233.59557   -230.45689   -45770.568      9.27696      9.27696      9.27696    4678.6874 
   22300    400.85114   -233.64823   -230.43576   -45632.604      9.27696      9.27696      9.27696    15985.871 
   22400    405.03721   -233.66026   -230.41424   -45440.633      9.27696      9.27696      9.27696    5217.6777 
   22500    400.67788   -233.60381   -230.39273   -44808.172      9.27696      9.27696      9.27696    34720.995 
   22600    389.72295   -233.49492   -230.37163   -43837.159      9.27696      9.27696      9.27696    68560.789 
   22700    377.49881   -233.37652   -230.35119   -42556.806      9.27696      9.27696      9.27696    116792.35 
   22800    375.29311   -233.33884   -230.33119   -41814.904      9.27696      9.27696      9.27696    58434.828 
   22900     392.6596   -233.45761   -230.31079   -42704.185      9.27696      9.27696      9.27696    51780.828 
   23000    423.16172    -233.6803   -230.28902   -43630.271      9.27696      9.27696      9.27696    87496.425 
   23100    446.24038   -233.84197   -230.26574   -44250.775      9.27696      9.27696      9.27696    77010.046 
   23200    447.47095    -233.8279   -230.24181   -44760.273      9.27696      9.27696      9.27696    29453.742 
   23300    430.98777   -233.67236   -230.21837   -43693.539      9.27696      9.27696      9.27696       108568 
   23400    415.51596    -233.5259   -230.19591   -43025.074      9.27696      9.27696      9.27696    54425.668 
   23500    419.10506   -233.53257   -230.17381    -42988.07      9.27696      9.27696      9.27696    14364.906 
   23600    442.20104   -233.69482   -230.15096   -44147.155      9.27696      9.27696      9.27696    102077.46 
   23700    466.63711   -233.86646   -230.12677   -45153.705      9.27696      9.27696      9.27696    62605.722 
   23800    477.53273   -233.92865   -230.10164   -45340.486      9.27696      9.27696      9.27696    19777.063 
   23900     475.2727   -233.88526   -230.07636     -44577.7      9.27696      9.27696      9.27696    91636.069 
   24000    464.35928   -233.77292   -230.05149   -43696.604      9.27696      9.27696      9.27696    92936.322 
Loop time of 0.260959 on 1 procs for 2000 steps with 63 atoms

Performance: 66.217 ns/day, 0.362 hours/ns, 7664.054 timesteps/s
100.0% CPU use with 1 MPI tasks x 1 OpenMP threads

MPI task timing breakdown:
Section |  min time  |  avg time  |  max time  |%varavg| %total
---------------------------------------------------------------
Pair    | 0.23885    | 0.23885    | 0.23885    |   0.0 | 91.53
Neigh   | 0.0050328  | 0.0050328  | 0.0050328  |   0.0 |  1.93
Comm    | 0.0054883  | 0.0054883  | 0.0054883  |   0.0 |  2.10
Output  | 0.00025623 | 0.00025623 | 0.00025623 |   0.0 |  0.10
Modify  | 0.0098488  | 0.0098488  | 0.0098488  |   0.0 |  3.77
Other   |            | 0.001482   |            |       |  0.57

Nlocal:    63 ave 63 max 63 min
Histogram: 1 0 0 0 0 0 0 0 0 0
Nghost:    809 ave 809 max 809 min
Histogram: 1 0 0 0 0 0 0 0 0 0
Neighs:    2687 ave 2687 max 2687 min
Histogram: 1 0 0 0 0 0 0 0 0 0

Total # of neighbors = 2687
Ave neighs/atom = 42.6508
Neighbor list builds = 63
Dangerous builds = 0
next loopNum
jump SELF loop
if              "${variance} > 1000" then "run 2000" "next loopNum" "jump SELF loop" else "print 'continue'"
run 2000
Per MPI rank memory allocation (min/avg/max) = 2.964 | 2.964 | 2.964 Mbytes
Step Temp PotEng TotEng Press Lx Ly Lz v_variance 
   24000    464.35928   -233.77292   -230.05149   -43696.604      9.27696      9.27696      9.27696    92936.322 
   24100    450.10363   -233.63453   -230.02735   -41969.697      9.27696      9.27696      9.27696    361688.02 
   24200    443.99042   -233.56202   -230.00382   -41629.357      9.27696      9.27696      9.27696     26228.92 
   24300    455.61096   -233.63151   -229.98018   -41758.257      9.27696      9.27696      9.27696    25005.543 
   24400     475.9878   -233.77025   -229.95562   -42765.348      9.27696      9.27696      9.27696    102109.85 
   24500    485.77184   -233.82326   -229.93022   -43052.809      9.27696      9.27696      9.27696     16553.29 
   24600    477.97951   -233.73541   -229.90482   -43072.069      9.27696      9.27696      9.27696    4340.1823 
   24700    465.41552   -233.60997   -229.88007   -42966.007      9.27696      9.27696      9.27696    10257.399 
   24800    467.81862   -233.60483   -229.85567   -43408.554      9.27696      9.27696      9.27696    20266.306 
   24900    485.99085   -233.72551   -229.83072   -44558.228      9.27696      9.27696      9.27696    126616.24 
   25000     497.6196   -233.79287   -229.80488   -44887.096      9.27696      9.27696      9.27696    12910.164 
   25100    481.58108    -233.6386   -229.77915   -44635.916      9.27696      9.27696      9.27696    10618.406 
   25200    443.02242   -233.30538   -229.75494   -42473.105      9.27696      9.27696      9.27696    393304.56 
   25300    409.29846    -233.0129   -229.73273   -40994.897      9.27696      9.27696      9.27696    222066.32 
   25400    400.31667   -232.91985   -229.71166   -40326.368      9.27696      9.27696      9.27696    68802.935 
   25500    413.45307   -233.00385   -229.69038   -40628.483      9.27696      9.27696      9.27696    15156.661 
   25600    434.44406    -233.1498   -229.66811   -41412.428      9.27696      9.27696      9.27696    113891.25 
   25700    452.78545   -233.27345   -229.64477   -42413.521      9.27696      9.27696      9.27696    91961.847 
   25800    465.10957   -233.34806   -229.62062    -42744.16      9.27696      9.27696      9.27696    13366.711 
   25900    474.79806   -233.40101   -229.59592   -43204.945      9.27696      9.27696      9.27696    18199.302 
   26000    489.01113   -233.48963   -229.57063    -43190.58      9.27696      9.27696      9.27696    8624.6239 
Loop time of 0.259949 on 1 procs for 2000 steps with 63 atoms

Performance: 66.475 ns/day, 0.361 hours/ns, 7693.821 timesteps/s
100.0% CPU use with 1 MPI tasks x 1 OpenMP threads

MPI task timing breakdown:
Section |  min time  |  avg time  |  max time  |%varavg| %total
---------------------------------------------------------------
Pair    | 0.23792    | 0.23792    | 0.23792    |   0.0 | 91.53
Neigh   | 0.0051263  | 0.0051263  | 0.0051263  |   0.0 |  1.97
Comm    | 0.0054958  | 0.0054958  | 0.0054958  |   0.0 |  2.11
Output  | 0.00020729 | 0.00020729 | 0.00020729 |   0.0 |  0.08
Modify  | 0.0097498  | 0.0097498  | 0.0097498  |   0.0 |  3.75
Other   |            | 0.001447   |            |       |  0.56

Nlocal:    63 ave 63 max 63 min
Histogram: 1 0 0 0 0 0 0 0 0 0
Nghost:    797 ave 797 max 797 min
Histogram: 1 0 0 0 0 0 0 0 0 0
Neighs:    2694 ave 2694 max 2694 min
Histogram: 1 0 0 0 0 0 0 0 0 0

Total # of neighbors = 2694
Ave neighs/atom = 42.7619
Neighbor list builds = 63
Dangerous builds = 0
next loopNum
jump SELF loop
if              "${variance} > 1000" then "run 2000" "next loopNum" "jump SELF loop" else "print 'continue'"
run 2000
Per MPI rank memory allocation (min/avg/max) = 2.964 | 2.964 | 2.964 Mbytes
Step Temp PotEng TotEng Press Lx Ly Lz v_variance 
   26000    489.01113   -233.48963   -229.57063    -43190.58      9.27696      9.27696      9.27696    8624.6239 
   26100    513.07303   -233.65621   -229.54437   -43848.565      9.27696      9.27696      9.27696    90991.386 
   26200    541.91291   -233.85968   -229.51672   -44365.811      9.27696      9.27696      9.27696    20724.614 
   26300    561.77578   -233.98994    -229.4878   -45156.616      9.27696      9.27696      9.27696    53036.113 
   26400    562.52514   -233.96654   -229.45839   -44831.077      9.27696      9.27696      9.27696    13389.771 
   26500     541.0674   -233.76579   -229.42961   -43114.838      9.27696      9.27696      9.27696    215166.73 
   26600     501.4521   -233.42119   -229.40248   -40684.719      9.27696      9.27696      9.27696    421315.95 
   26700    462.93759   -233.08759   -229.37755   -38455.841      9.27696      9.27696      9.27696    407650.79 
   26800    452.87315   -232.98333   -229.35395   -37569.808      9.27696      9.27696      9.27696    54563.358 
   26900    478.10458   -233.16149    -229.3299   -38321.757      9.27696      9.27696      9.27696    145012.19 
   27000    517.11449    -233.4483   -229.30408    -40455.69      9.27696      9.27696      9.27696       511714 
   27100    544.49201   -233.64007   -229.27644   -41787.034      9.27696      9.27696      9.27696    126060.74 
   27200    546.44049   -233.62731   -229.24807   -41700.591      9.27696      9.27696      9.27696    18102.808 
   27300    520.03283   -233.38801    -229.2204   -40375.368      9.27696      9.27696      9.27696    108861.35 
   27400    475.33996   -233.00407   -229.19464   -38236.633      9.27696      9.27696      9.27696    593213.28 
   27500    435.67648   -232.66275   -229.17118   -36457.692      9.27696      9.27696      9.27696    329053.79 
   27600      425.222   -232.55684   -229.14906   -36047.388      9.27696      9.27696      9.27696    11338.189 
   27700    449.26562   -232.72697    -229.1265   -37124.295      9.27696      9.27696      9.27696    99424.126 
   27800    490.94853   -233.03661   -229.10209   -38987.751      9.27696      9.27696      9.27696    288759.34 
   27900    529.85311   -233.32183   -229.07552   -40532.809      9.27696      9.27696      9.27696    196421.62 
   28000    555.29832   -233.49752   -229.04729   -41336.797      9.27696      9.27696      9.27696    33496.738 
Loop time of 0.263444 on 1 procs for 2000 steps with 63 atoms

Performance: 65.593 ns/day, 0.366 hours/ns, 7591.757 timesteps/s
100.0% CPU use with 1 MPI tasks x 1 OpenMP threads

MPI task timing breakdown:
Section |  min time  |  avg time  |  max time  |%varavg| %total
---------------------------------------------------------------
Pair    | 0.23942    | 0.23942    | 0.23942    |   0.0 | 90.88
Neigh   | 0.0060026  | 0.0060026  | 0.0060026  |   0.0 |  2.28
Comm    | 0.0065926  | 0.0065926  | 0.0065926  |   0.0 |  2.50
Output  | 0.00022041 | 0.00022041 | 0.00022041 |   0.0 |  0.08
Modify  | 0.0097503  | 0.0097503  | 0.0097503  |   0.0 |  3.70
Other   |            | 0.001454   |            |       |  0.55

Nlocal:    63 ave 63 max 63 min
Histogram: 1 0 0 0 0 0 0 0 0 0
Nghost:    788 ave 788 max 788 min
Histogram: 1 0 0 0 0 0 0 0 0 0
Neighs:    2676 ave 2676 max 2676 min
Histogram: 1 0 0 0 0 0 0 0 0 0

Total # of neighbors = 2676
Ave neighs/atom = 42.4762
Neighbor list builds = 76
Dangerous builds = 0
next loopNum
jump SELF loop
if              "${variance} > 1000" then "run 2000" "next loopNum" "jump SELF loop" else "print 'continue'"
run 2000
Per MPI rank memory allocation (min/avg/max) = 2.964 | 2.964 | 2.964 Mbytes
Step Temp PotEng TotEng Press Lx Ly Lz v_variance 
   28000    555.29832   -233.49752   -229.04729   -41336.797      9.27696      9.27696      9.27696    33496.738 
   28100    568.62038   -233.57515   -229.01815   -41213.482      9.27696      9.27696      9.27696    18728.274 
   28200    580.18198   -233.63812   -228.98847   -41320.677      9.27696      9.27696      9.27696    16161.935 
   28300    598.04303   -233.75089    -228.9581   -40959.361      9.27696      9.27696      9.27696    14058.536 
   28400    614.66167   -233.85287   -228.92689   -40797.405      9.27696      9.27696      9.27696    7512.0381 
   28500    621.22936    -233.8738   -228.89518   -40040.325      9.27696      9.27696      9.27696    64739.568 
   28600    620.23708   -233.83414   -228.86348   -39806.071      9.27696      9.27696      9.27696    12314.469 
   28700     623.0957   -233.82546   -228.83189   -40176.508      9.27696      9.27696      9.27696    44691.887 
   28800    636.13609   -233.89806   -228.79999    -41409.05      9.27696      9.27696      9.27696    136135.22 
   28900    650.49664   -233.98061   -228.76744   -42752.122      9.27696      9.27696      9.27696    150123.61 
   29000    652.34005   -233.96249   -228.73455   -43414.086      9.27696      9.27696      9.27696    140389.43 
   29100    641.75243   -233.84516   -228.70207   -43228.473      9.27696      9.27696      9.27696    7281.8518 
   29200    629.47016   -233.71496    -228.6703   -42166.623      9.27696      9.27696      9.27696    89671.034 
   29300    618.13461   -233.59301   -228.63919    -40940.76      9.27696      9.27696      9.27696    139171.83 
   29400    598.82442   -233.40794   -228.60888   -39108.817      9.27696      9.27696      9.27696    239960.18 
   29500    566.75622   -233.12195    -228.5799    -37040.95      9.27696      9.27696      9.27696    468880.41 
   29600     541.4799     -232.892   -228.55251   -35384.387      9.27696      9.27696      9.27696    198290.53 
   29700    550.73066    -232.9392   -228.52557   -35620.342      9.27696      9.27696      9.27696    4090.7148 
   29800    597.50464   -233.28566   -228.49718   -37806.161      9.27696      9.27696      9.27696    473651.51 
   29900    657.67844    -233.7368   -228.46608   -40497.698      9.27696      9.27696      9.27696    599808.46 
   30000    706.27659   -234.09247   -228.43228   -42437.096      9.27696      9.27696      9.27696    351171.46 
Loop time of 0.259079 on 1 procs for 2000 steps with 63 atoms

Performance: 66.698 ns/day, 0.360 hours/ns, 7719.643 timesteps/s
98.5% CPU use with 1 MPI tasks x 1 OpenMP threads

MPI task timing breakdown:
Section |  min time  |  avg time  |  max time  |%varavg| %total
---------------------------------------------------------------
Pair    | 0.23675    | 0.23675    | 0.23675    |   0.0 | 91.38
Neigh   | 0.0054918  | 0.0054918  | 0.0054918  |   0.0 |  2.12
Comm    | 0.0055454  | 0.0055454  | 0.0055454  |   0.0 |  2.14
Output  | 0.00020291 | 0.00020291 | 0.00020291 |   0.0 |  0.08
Modify  | 0.00962    | 0.00962    | 0.00962    |   0.0 |  3.71
Other   |            | 0.001474   |            |       |  0.57

Nlocal:    63 ave 63 max 63 min
Histogram: 1 0 0 0 0 0 0 0 0 0
Nghost:    797 ave 797 max 797 min
Histogram: 1 0 0 0 0 0 0 0 0 0
Neighs:    2658 ave 2658 max 2658 min
Histogram: 1 0 0 0 0 0 0 0 0 0

Total # of neighbors = 2658
Ave neighs/atom = 42.1905
Neighbor list builds = 70
Dangerous builds = 0
next loopNum
jump SELF loop
if              "${variance} > 1000" then "run 2000" "next loopNum" "jump SELF loop" else "print 'continue'"
run 2000
Per MPI rank memory allocation (min/avg/max) = 2.964 | 2.964 | 2.964 Mbytes
Step Temp PotEng TotEng Press Lx Ly Lz v_variance 
   30000    706.27659   -234.09247   -228.43228   -42437.096      9.27696      9.27696      9.27696    351171.46 
   30100    724.14767   -234.20034   -228.39692   -42507.595      9.27696      9.27696      9.27696    21356.031 
   30200    699.60106   -233.96859   -228.36189   -41097.956      9.27696      9.27696      9.27696    235425.11 
   30300    647.09452   -233.51489   -228.32899   -38250.528      9.27696      9.27696      9.27696    681510.01 
   30400     603.9244   -233.13861   -228.29868    -35832.26      9.27696      9.27696      9.27696    513480.31 
   30500    592.41617   -233.01741   -228.26971   -35086.371      9.27696      9.27696      9.27696    59070.108 
   30600    594.61448   -233.00615   -228.24084   -35797.479      9.27696      9.27696      9.27696     80006.87 
   30700    578.30526   -232.84683   -228.21221   -35705.448      9.27696      9.27696      9.27696    16039.945 
   30800    539.46622   -232.50834   -228.18498   -35027.389      9.27696      9.27696      9.27696    39452.487 
   30900     510.2895   -232.24907   -228.15955   -34438.919      9.27696      9.27696      9.27696    26399.763 
   31000     518.7209   -232.29166   -228.13456   -34388.208      9.27696      9.27696      9.27696    9682.9881 
   31100    548.95247   -232.50785   -228.10847   -34776.145      9.27696      9.27696      9.27696    12196.849 
   31200    575.26213   -232.69112   -228.08089   -35271.884      9.27696      9.27696      9.27696    21734.427 
   31300    593.67718   -232.81002   -228.05222   -35783.015      9.27696      9.27696      9.27696    27867.303 
   31400    606.36188   -232.88224   -228.02278   -35650.633      9.27696      9.27696      9.27696    7674.2531 
   31500    611.69699   -232.89512    -227.9929   -35085.385      9.27696      9.27696      9.27696    27457.956 
   31600     605.8471   -232.81836   -227.96302   -33917.685      9.27696      9.27696      9.27696    89350.262 
   31700    589.76669   -232.66017    -227.9337   -33233.165      9.27696      9.27696      9.27696    78415.668 
   31800    574.29699   -232.50771   -227.90522   -32092.975      9.27696      9.27696      9.27696    88823.502 
   31900    574.14339   -232.47842   -227.87716   -32159.558      9.27696      9.27696      9.27696    4314.8346 
   32000    601.72275   -232.67073   -227.84844   -33852.223      9.27696      9.27696      9.27696    200682.99 
Loop time of 0.259961 on 1 procs for 2000 steps with 63 atoms

Performance: 66.471 ns/day, 0.361 hours/ns, 7693.447 timesteps/s
100.0% CPU use with 1 MPI tasks x 1 OpenMP threads

MPI task timing breakdown:
Section |  min time  |  avg time  |  max time  |%varavg| %total
---------------------------------------------------------------
Pair    | 0.23698    | 0.23698    | 0.23698    |   0.0 | 91.16
Neigh   | 0.0059491  | 0.0059491  | 0.0059491  |   0.0 |  2.29
Comm    | 0.0056684  | 0.0056684  | 0.0056684  |   0.0 |  2.18
Output  | 0.00024366 | 0.00024366 | 0.00024366 |   0.0 |  0.09
Modify  | 0.0096842  | 0.0096842  | 0.0096842  |   0.0 |  3.73
Other   |            | 0.001437   |            |       |  0.55

Nlocal:    63 ave 63 max 63 min
Histogram: 1 0 0 0 0 0 0 0 0 0
Nghost:    805 ave 805 max 805 min
Histogram: 1 0 0 0 0 0 0 0 0 0
Neighs:    2678 ave 2678 max 2678 min
Histogram: 1 0 0 0 0 0 0 0 0 0

Total # of neighbors = 2678
Ave neighs/atom = 42.5079
Neighbor list builds = 74
Dangerous builds = 0
next loopNum
jump SELF loop
if              "${variance} > 1000" then "run 2000" "next loopNum" "jump SELF loop" else "print 'continue'"
run 2000
Per MPI rank memory allocation (min/avg/max) = 2.964 | 2.964 | 2.964 Mbytes
Step Temp PotEng TotEng Press Lx Ly Lz v_variance 
   32000    601.72275   -232.67073   -227.84844   -33852.223      9.27696      9.27696      9.27696    200682.99 
   32100    651.25032   -233.03698   -227.81778    -35961.76      9.27696      9.27696      9.27696    306093.93 
   32200    687.59324   -233.29535   -227.78489    -37493.32      9.27696      9.27696      9.27696    235594.02 
   32300    680.06036   -233.20142   -227.75133   -37455.273      9.27696      9.27696      9.27696     30266.73 
   32400    632.28123   -232.78647   -227.71929   -35491.325      9.27696      9.27696      9.27696    389973.75 
   32500    582.49196   -232.35802   -227.68985   -33621.976      9.27696      9.27696      9.27696    404915.75 
   32600    569.17737    -232.2235   -227.66204   -32605.594      9.27696      9.27696      9.27696    165203.56 
   32700     587.4986   -232.34223   -227.63394    -33170.56      9.27696      9.27696      9.27696    47734.239 
   32800    601.87704   -232.42842    -227.6049   -33228.174      9.27696      9.27696      9.27696    12837.121 
   32900     601.7708   -232.39822   -227.57555   -32224.363      9.27696      9.27696      9.27696     80360.71 
   33000    614.32111   -232.46929   -227.54604   -32556.869      9.27696      9.27696      9.27696    10264.066 
   33100    657.04196   -232.78081   -227.51519   -33888.009      9.27696      9.27696      9.27696    127118.35 
   33200    707.96677    -233.1557   -227.48196   -35728.353      9.27696      9.27696      9.27696    351274.16 
   33300    724.62725   -233.25431   -227.44705    -36596.31      9.27696      9.27696      9.27696    62636.227 
   33400    686.86275    -232.9174    -227.4128   -34840.618      9.27696      9.27696      9.27696    245116.76 
   33500    625.15501   -232.39129   -227.38122   -32534.808      9.27696      9.27696      9.27696    444759.67 
   33600    598.06487   -232.14499   -227.35202    -31590.26      9.27696      9.27696      9.27696    54421.217 
   33700    634.45941   -232.40721   -227.32257   -33074.632      9.27696      9.27696      9.27696     225138.1 
   33800     701.8436   -232.91509   -227.29042   -35639.415      9.27696      9.27696      9.27696    660374.11 
   33900    743.84216   -233.21682   -227.25557   -37326.562      9.27696      9.27696      9.27696    277168.38 
   34000    740.42213   -233.15379   -227.21995    -36807.84      9.27696      9.27696      9.27696    29559.732 
Loop time of 0.259588 on 1 procs for 2000 steps with 63 atoms

Performance: 66.567 ns/day, 0.361 hours/ns, 7704.522 timesteps/s
100.0% CPU use with 1 MPI tasks x 1 OpenMP threads

MPI task timing breakdown:
Section |  min time  |  avg time  |  max time  |%varavg| %total
---------------------------------------------------------------
Pair    | 0.23641    | 0.23641    | 0.23641    |   0.0 | 91.07
Neigh   | 0.0062031  | 0.0062031  | 0.0062031  |   0.0 |  2.39
Comm    | 0.0056692  | 0.0056692  | 0.0056692  |   0.0 |  2.18
Output  | 0.00021414 | 0.00021414 | 0.00021414 |   0.0 |  0.08
Modify  | 0.0095993  | 0.0095993  | 0.0095993  |   0.0 |  3.70
Other   |            | 0.001489   |            |       |  0.57

Nlocal:    63 ave 63 max 63 min
Histogram: 1 0 0 0 0 0 0 0 0 0
Nghost:    795 ave 795 max 795 min
Histogram: 1 0 0 0 0 0 0 0 0 0
Neighs:    2662 ave 2662 max 2662 min
Histogram: 1 0 0 0 0 0 0 0 0 0

Total # of neighbors = 2662
Ave neighs/atom = 42.254
Neighbor list builds = 78
Dangerous builds = 0
next loopNum
jump SELF loop
if              "${variance} > 1000" then "run 2000" "next loopNum" "jump SELF loop" else "print 'continue'"
run 2000
Per MPI rank memory allocation (min/avg/max) = 2.964 | 2.964 | 2.964 Mbytes
Step Temp PotEng TotEng Press Lx Ly Lz v_variance 
   34000    740.42213   -233.15379   -227.21995    -36807.84      9.27696      9.27696      9.27696    29559.732 
   34100    719.75648   -232.95344   -227.18522   -35831.459      9.27696      9.27696      9.27696    87814.813 
   34200    726.95587   -232.97698   -227.15107   -35528.119      9.27696      9.27696      9.27696    14342.497 
   34300    764.10053   -233.23944   -227.11584   -36297.654      9.27696      9.27696      9.27696     63987.67 
   34400    782.33666   -233.34903   -227.07928   -36432.779      9.27696      9.27696      9.27696    49442.416 
   34500    755.22127   -233.09556   -227.04312   -34724.068      9.27696      9.27696      9.27696     276951.8 
   34600    713.03938   -232.72329    -227.0089   -32276.361      9.27696      9.27696      9.27696     590110.4 
   34700    691.73028   -232.51992    -226.9763   -30439.446      9.27696      9.27696      9.27696    358631.78 
   34800     692.6614   -232.49528    -226.9442    -29665.07      9.27696      9.27696      9.27696    44138.184 
   34900    698.25871   -232.50784    -226.9119   -29054.925      9.27696      9.27696      9.27696    33816.645 
   35000      693.046   -232.43376    -226.8796   -29021.156      9.27696      9.27696      9.27696    14194.287 
   35100    680.00515   -232.29748   -226.84783   -28575.441      9.27696      9.27696      9.27696    41778.226 
   35200    672.51775   -232.20624   -226.81659   -28225.557      9.27696      9.27696      9.27696    41647.004 
   35300    678.58615   -232.22371   -226.78543   -28549.382      9.27696      9.27696      9.27696    10627.679 
   35400     701.9729   -232.37934   -226.75364   -29943.991      9.27696      9.27696      9.27696    140692.67 
   35500    736.05137   -232.61933   -226.72052   -31382.977      9.27696      9.27696      9.27696    240316.77 
   35600     763.1328   -232.80182   -226.68597   -32677.033      9.27696      9.27696      9.27696    132135.19 
   35700    756.76882   -232.71581   -226.65097    -33032.76      9.27696      9.27696      9.27696    13881.966 
   35800    713.55668   -232.33581   -226.61728   -31374.029      9.27696      9.27696      9.27696    250162.11 
   35900     661.6767   -231.88869   -226.58593   -29869.753      9.27696      9.27696      9.27696    175323.14 
   36000    614.76248   -231.48359   -226.55681   -28321.229      9.27696      9.27696      9.27696     207994.9 
Loop time of 0.258429 on 1 procs for 2000 steps with 63 atoms

Performance: 66.866 ns/day, 0.359 hours/ns, 7739.082 timesteps/s
100.0% CPU use with 1 MPI tasks x 1 OpenMP threads

MPI task timing breakdown:
Section |  min time  |  avg time  |  max time  |%varavg| %total
---------------------------------------------------------------
Pair    | 0.23512    | 0.23512    | 0.23512    |   0.0 | 90.98
Neigh   | 0.0063383  | 0.0063383  | 0.0063383  |   0.0 |  2.45
Comm    | 0.0056231  | 0.0056231  | 0.0056231  |   0.0 |  2.18
Output  | 0.00021399 | 0.00021399 | 0.00021399 |   0.0 |  0.08
Modify  | 0.0097232  | 0.0097232  | 0.0097232  |   0.0 |  3.76
Other   |            | 0.001412   |            |       |  0.55

Nlocal:    63 ave 63 max 63 min
Histogram: 1 0 0 0 0 0 0 0 0 0
Nghost:    811 ave 811 max 811 min
Histogram: 1 0 0 0 0 0 0 0 0 0
Neighs:    2684 ave 2684 max 2684 min
Histogram: 1 0 0 0 0 0 0 0 0 0

Total # of neighbors = 2684
Ave neighs/atom = 42.6032
Neighbor list builds = 81
Dangerous builds = 0
next loopNum
jump SELF loop
if              "${variance} > 1000" then "run 2000" "next loopNum" "jump SELF loop" else "print 'continue'"
run 2000
Per MPI rank memory allocation (min/avg/max) = 2.964 | 2.964 | 2.964 Mbytes
Step Temp PotEng TotEng Press Lx Ly Lz v_variance 
   36000    614.76248   -231.48359   -226.55681   -28321.229      9.27696      9.27696      9.27696     207994.9 
   36100    577.59346   -231.15851    -226.5296   -26656.596      9.27696      9.27696      9.27696    172905.01 
   36200    575.62165   -231.11644   -226.50334   -26310.744      9.27696      9.27696      9.27696     38508.29 
   36300    627.19279   -231.50223   -226.47583   -28116.235      9.27696      9.27696      9.27696    270932.06 
   36400      703.225    -232.0809   -226.44516   -30461.469      9.27696      9.27696      9.27696    509573.94 
   36500    762.39885   -232.52125   -226.41129   -32799.429      9.27696      9.27696      9.27696     409305.4 
   36600    794.43548   -232.74214   -226.37544   -34140.438      9.27696      9.27696      9.27696    150810.26 
   36700    813.41601   -232.85748   -226.33866   -35271.202      9.27696      9.27696      9.27696     114016.8 
   36800    832.04295   -232.96931   -226.30121   -35979.912      9.27696      9.27696      9.27696    44812.014 
   36900    842.38257   -233.01422   -226.26326    -36291.81      9.27696      9.27696      9.27696    17497.295 
   37000    827.44234    -232.8568   -226.22557   -34914.322      9.27696      9.27696      9.27696    189464.06 
   37100     778.3008   -232.42691    -226.1895   -31727.985      9.27696      9.27696      9.27696    1108837.3 
   37200    704.17972   -231.79973   -226.15634    -27277.93      9.27696      9.27696      9.27696    1730979.4 
   37300    640.49139   -231.25943   -226.12645   -24617.221      9.27696      9.27696      9.27696    675855.54 
   37400    621.09712   -231.07599   -226.09844   -23556.448      9.27696      9.27696      9.27696    82035.966 
   37500     639.6767   -231.19673   -226.07028   -24264.055      9.27696      9.27696      9.27696    116773.73 
   37600    670.78283   -231.41661   -226.04087   -26449.668      9.27696      9.27696      9.27696     316816.9 
   37700     699.1823   -231.61338   -226.01004   -28078.635      9.27696      9.27696      9.27696    227412.75 
   37800    715.63426   -231.71337   -225.97818   -28960.286      9.27696      9.27696      9.27696    76876.982 
   37900    716.59238   -231.68883   -225.94597   -29118.659      9.27696      9.27696      9.27696    6649.2776 
   38000    715.23171   -231.64583   -225.91387   -29040.128      9.27696      9.27696      9.27696    2799.7836 
Loop time of 0.259199 on 1 procs for 2000 steps with 63 atoms

Performance: 66.667 ns/day, 0.360 hours/ns, 7716.077 timesteps/s
100.0% CPU use with 1 MPI tasks x 1 OpenMP threads

MPI task timing breakdown:
Section |  min time  |  avg time  |  max time  |%varavg| %total
---------------------------------------------------------------
Pair    | 0.23585    | 0.23585    | 0.23585    |   0.0 | 90.99
Neigh   | 0.0064602  | 0.0064602  | 0.0064602  |   0.0 |  2.49
Comm    | 0.0055042  | 0.0055042  | 0.0055042  |   0.0 |  2.12
Output  | 0.00020958 | 0.00020958 | 0.00020958 |   0.0 |  0.08
Modify  | 0.0097185  | 0.0097185  | 0.0097185  |   0.0 |  3.75
Other   |            | 0.001461   |            |       |  0.56

Nlocal:    63 ave 63 max 63 min
Histogram: 1 0 0 0 0 0 0 0 0 0
Nghost:    804 ave 804 max 804 min
Histogram: 1 0 0 0 0 0 0 0 0 0
Neighs:    2669 ave 2669 max 2669 min
Histogram: 1 0 0 0 0 0 0 0 0 0

Total # of neighbors = 2669
Ave neighs/atom = 42.3651
Neighbor list builds = 83
Dangerous builds = 0
next loopNum
jump SELF loop
if              "${variance} > 1000" then "run 2000" "next loopNum" "jump SELF loop" else "print 'continue'"
run 2000
Per MPI rank memory allocation (min/avg/max) = 2.964 | 2.964 | 2.964 Mbytes
Step Temp PotEng TotEng Press Lx Ly Lz v_variance 
   38000    715.23171   -231.64583   -225.91387   -29040.128      9.27696      9.27696      9.27696    2799.7836 
   38100    738.51677   -231.79996    -225.8814   -28879.154      9.27696      9.27696      9.27696    10544.825 
   38200    791.60005   -232.19118    -225.8472   -29746.718      9.27696      9.27696      9.27696    71224.896 
   38300    842.83982   -232.56526   -225.81063   -30358.625      9.27696      9.27696      9.27696    20245.278 
   38400    856.16957   -232.63419   -225.77273   -29994.647      9.27696      9.27696      9.27696    52317.168 
   38500    825.33827   -232.34982   -225.73545    -27845.65      9.27696      9.27696      9.27696    438608.91 
   38600    779.38584   -231.94628   -225.70018   -25424.114      9.27696      9.27696      9.27696    600303.97 
   38700    753.48695   -231.70521   -225.66667   -24530.327      9.27696      9.27696      9.27696    64392.515 
   38800    758.06816   -231.70893   -225.63367   -24763.713      9.27696      9.27696      9.27696    10346.902 
   38900    777.33912   -231.82979    -225.6001   -26051.626      9.27696      9.27696      9.27696    201130.62 
   39000    781.09557    -231.8258     -225.566   -26905.492      9.27696      9.27696      9.27696    89600.878 
   39100    765.10463   -231.66396   -225.53232    -26908.62      9.27696      9.27696      9.27696    5857.5986 
   39200    768.30734   -231.65648   -225.49917   -26809.553      9.27696      9.27696      9.27696     9710.136 
   39300    812.07088   -231.97304   -225.46499   -27885.711      9.27696      9.27696      9.27696    99489.903 
   39400     848.8534   -232.23176   -225.42894   -28519.923      9.27696      9.27696      9.27696    37466.727 
   39500     825.5082   -232.00841   -225.39268   -26934.903      9.27696      9.27696      9.27696     240209.2 
   39600    760.98635   -231.45726   -225.35862   -24606.396      9.27696      9.27696      9.27696    442097.31 
   39700    731.97302   -231.19302   -225.32689   -23305.978      9.27696      9.27696      9.27696    133034.33 
   39800    774.28748   -231.50008   -225.29484   -24746.952      9.27696      9.27696      9.27696    222275.09 
   39900    833.10629   -231.93702    -225.2604   -26907.899      9.27696      9.27696      9.27696    453052.44 
   40000    845.12259   -231.99736   -225.22444   -26374.672      9.27696      9.27696      9.27696    44653.638 
Loop time of 0.259793 on 1 procs for 2000 steps with 63 atoms

Performance: 66.514 ns/day, 0.361 hours/ns, 7698.431 timesteps/s
100.0% CPU use with 1 MPI tasks x 1 OpenMP threads

MPI task timing breakdown:
Section |  min time  |  avg time  |  max time  |%varavg| %total
---------------------------------------------------------------
Pair    | 0.23579    | 0.23579    | 0.23579    |   0.0 | 90.76
Neigh   | 0.0069894  | 0.0069894  | 0.0069894  |   0.0 |  2.69
Comm    | 0.0056585  | 0.0056585  | 0.0056585  |   0.0 |  2.18
Output  | 0.00021506 | 0.00021506 | 0.00021506 |   0.0 |  0.08
Modify  | 0.0097162  | 0.0097162  | 0.0097162  |   0.0 |  3.74
Other   |            | 0.001425   |            |       |  0.55

Nlocal:    63 ave 63 max 63 min
Histogram: 1 0 0 0 0 0 0 0 0 0
Nghost:    797 ave 797 max 797 min
Histogram: 1 0 0 0 0 0 0 0 0 0
Neighs:    2663 ave 2663 max 2663 min
Histogram: 1 0 0 0 0 0 0 0 0 0

Total # of neighbors = 2663
Ave neighs/atom = 42.2698
Neighbor list builds = 88
Dangerous builds = 0
next loopNum
jump SELF loop
if              "${variance} > 1000" then "run 2000" "next loopNum" "jump SELF loop" else "print 'continue'"
run 2000
Per MPI rank memory allocation (min/avg/max) = 2.964 | 2.964 | 2.964 Mbytes
Step Temp PotEng TotEng Press Lx Ly Lz v_variance 
   40000    845.12259   -231.99736   -225.22444   -26374.672      9.27696      9.27696      9.27696    44653.638 
   40100    811.55554   -231.69309   -225.18918   -24315.786      9.27696      9.27696      9.27696    505891.88 
   40200    785.73608   -231.45251   -225.15552   -21685.351      9.27696      9.27696      9.27696     645142.3 
   40300    805.67456   -231.57882   -225.12204   -21065.232      9.27696      9.27696      9.27696     54321.62 
   40400    842.79781   -231.84154   -225.08725   -21542.131      9.27696      9.27696      9.27696    64314.361 
   40500    847.55118   -231.84397   -225.05159   -21843.698      9.27696      9.27696      9.27696    12273.247 
   40600     818.1831    -231.5737   -225.01667   -20578.356      9.27696      9.27696      9.27696    135161.73 
   40700    786.45099   -231.28595   -224.98323   -19160.555      9.27696      9.27696      9.27696    166106.76 
   40800     772.4032   -231.14097   -224.95083   -17941.107      9.27696      9.27696      9.27696    117822.55 
   40900    772.43464   -231.10908   -224.91869   -18296.632      9.27696      9.27696      9.27696    20324.974 
   41000     775.8568   -231.10428   -224.88646   -19155.679      9.27696      9.27696      9.27696     54050.38 
   41100    781.42482   -231.11652   -224.85408   -19907.689      9.27696      9.27696      9.27696    132806.25 
   41200    801.91681   -231.24793   -224.82127   -21299.116      9.27696      9.27696      9.27696    164592.52 
   41300    845.40922   -231.56237   -224.78715   -23272.386      9.27696      9.27696      9.27696    304176.49 
   41400    882.90424   -231.82703   -224.75133   -23968.725      9.27696      9.27696      9.27696    47898.591 
   41500    880.16474   -231.76862   -224.71487   -23276.167      9.27696      9.27696      9.27696    99259.369 
   41600    839.83758    -231.4101   -224.67954   -21885.378      9.27696      9.27696      9.27696    288731.27 
   41700    803.63513    -231.0865   -224.64607   -20619.032      9.27696      9.27696      9.27696    184752.21 
   41800    818.33886   -231.17146   -224.61318   -21377.753      9.27696      9.27696      9.27696    70940.285 
   41900    876.33611   -231.60179   -224.57872   -23828.764      9.27696      9.27696      9.27696    427318.62 
   42000    912.67757   -231.85657   -224.54226   -25216.881      9.27696      9.27696      9.27696     146915.8 
Loop time of 0.258248 on 1 procs for 2000 steps with 63 atoms

Performance: 66.912 ns/day, 0.359 hours/ns, 7744.480 timesteps/s
100.0% CPU use with 1 MPI tasks x 1 OpenMP threads

MPI task timing breakdown:
Section |  min time  |  avg time  |  max time  |%varavg| %total
---------------------------------------------------------------
Pair    | 0.2348     | 0.2348     | 0.2348     |   0.0 | 90.92
Neigh   | 0.0062562  | 0.0062562  | 0.0062562  |   0.0 |  2.42
Comm    | 0.0055569  | 0.0055569  | 0.0055569  |   0.0 |  2.15
Output  | 0.00020002 | 0.00020002 | 0.00020002 |   0.0 |  0.08
[...]
 1993600    1283.3882   -229.42397   -219.13873   -7273.1783      9.27696      9.27696      9.27696    51793.444 
 1993700    1240.4193   -229.09891   -219.15803    -4584.262      9.27696      9.27696      9.27696    797737.68 
 1993800    1193.6169    -228.7429    -219.1771   -2098.4504      9.27696      9.27696      9.27696    640020.56 
 1993900    1173.8351   -228.60335   -219.19608   -1838.6459      9.27696      9.27696      9.27696    10971.745 
 1994000    1179.3294   -228.66667   -219.21537   -2507.7266      9.27696      9.27696      9.27696    94848.538 
Loop time of 0.270082 on 1 procs for 2000 steps with 63 atoms

Performance: 63.981 ns/day, 0.375 hours/ns, 7405.152 timesteps/s
100.0% CPU use with 1 MPI tasks x 1 OpenMP threads

MPI task timing breakdown:
Section |  min time  |  avg time  |  max time  |%varavg| %total
---------------------------------------------------------------
Pair    | 0.2437     | 0.2437     | 0.2437     |   0.0 | 90.23
Neigh   | 0.0085695  | 0.0085695  | 0.0085695  |   0.0 |  3.17
Comm    | 0.0060068  | 0.0060068  | 0.0060068  |   0.0 |  2.22
Output  | 0.00022975 | 0.00022975 | 0.00022975 |   0.0 |  0.09
Modify  | 0.010095   | 0.010095   | 0.010095   |   0.0 |  3.74
Other   |            | 0.00148    |            |       |  0.55

Nlocal:    63 ave 63 max 63 min
Histogram: 1 0 0 0 0 0 0 0 0 0
Nghost:    791 ave 791 max 791 min
Histogram: 1 0 0 0 0 0 0 0 0 0
Neighs:    2682 ave 2682 max 2682 min
Histogram: 1 0 0 0 0 0 0 0 0 0

Total # of neighbors = 2682
Ave neighs/atom = 42.5714
Neighbor list builds = 103
Dangerous builds = 0
next loopNum
jump SELF loop
if              "${variance} > 1000" then "run 2000" "next loopNum" "jump SELF loop" else "print 'continue'"
run 2000
Per MPI rank memory allocation (min/avg/max) = 2.964 | 2.964 | 2.964 Mbytes
Step Temp PotEng TotEng Press Lx Ly Lz v_variance 
 1994000    1179.3294   -228.66667   -219.21537   -2507.7266      9.27696      9.27696      9.27696    94848.538 
 1994100    1190.8117   -228.77855   -219.23523    -3236.983      9.27696      9.27696      9.27696    114038.75 
 1994200    1188.3395    -228.7792    -219.2557   -3661.1951      9.27696      9.27696      9.27696    13808.367 
 1994300    1157.7276   -228.55444   -219.27627   -2427.7631      9.27696      9.27696      9.27696     174663.8 
 1994400    1103.5969    -228.1408   -219.29644   -502.01561      9.27696      9.27696      9.27696    282795.75 
 1994500    1061.4677   -227.82266   -219.31592    1223.6343      9.27696      9.27696      9.27696     234533.7 
 1994600    1054.2143   -227.78377   -219.33516    1584.2465      9.27696      9.27696      9.27696    16947.596 
 1994700    1061.8967   -227.86477   -219.35459    791.65519      9.27696      9.27696      9.27696    76062.381 
 1994800    1065.6062   -227.91422   -219.37432    -323.6677      9.27696      9.27696      9.27696    126656.12 
 1994900    1062.5017   -227.90928   -219.39425   -1380.9026      9.27696      9.27696      9.27696    86696.099 
 1995000    1064.1453   -227.94248   -219.41428   -1966.1763      9.27696      9.27696      9.27696    38176.207 
 1995100    1081.4016   -228.10117   -219.43468   -2639.3048      9.27696      9.27696      9.27696    24793.862 
 1995200    1084.8811   -228.14991   -219.45553   -2961.9912      9.27696      9.27696      9.27696    32264.138 
 1995300    1074.1659   -228.08496   -219.47646   -2854.9416      9.27696      9.27696      9.27696     6282.485 
 1995400    1091.6614   -228.24633   -219.49762   -3835.9348      9.27696      9.27696      9.27696    125684.01 
 1995500    1128.6626    -228.5648   -219.51955   -5782.7023      9.27696      9.27696      9.27696    320302.04 
 1995600    1139.5725   -228.67499   -219.54231   -6503.9667      9.27696      9.27696      9.27696    43018.241 
 1995700    1123.3303    -228.5678   -219.56528    -6377.168      9.27696      9.27696      9.27696    13746.806 
 1995800    1125.0173   -228.60433   -219.58829    -6101.258      9.27696      9.27696      9.27696    6574.5298 
 1995900    1161.7359   -228.92233   -219.61203   -7447.9102      9.27696      9.27696      9.27696    137360.24 
 1996000    1185.2846   -229.13586   -219.63683   -7991.1523      9.27696      9.27696      9.27696    45389.073 
Loop time of 0.27096 on 1 procs for 2000 steps with 63 atoms

Performance: 63.773 ns/day, 0.376 hours/ns, 7381.159 timesteps/s
100.0% CPU use with 1 MPI tasks x 1 OpenMP threads

MPI task timing breakdown:
Section |  min time  |  avg time  |  max time  |%varavg| %total
---------------------------------------------------------------
Pair    | 0.24413    | 0.24413    | 0.24413    |   0.0 | 90.10
Neigh   | 0.0089742  | 0.0089742  | 0.0089742  |   0.0 |  3.31
Comm    | 0.0059679  | 0.0059679  | 0.0059679  |   0.0 |  2.20
Output  | 0.00023262 | 0.00023262 | 0.00023262 |   0.0 |  0.09
Modify  | 0.01015    | 0.01015    | 0.01015    |   0.0 |  3.75
Other   |            | 0.001506   |            |       |  0.56

Nlocal:    63 ave 63 max 63 min
Histogram: 1 0 0 0 0 0 0 0 0 0
Nghost:    808 ave 808 max 808 min
Histogram: 1 0 0 0 0 0 0 0 0 0
Neighs:    2678 ave 2678 max 2678 min
Histogram: 1 0 0 0 0 0 0 0 0 0

Total # of neighbors = 2678
Ave neighs/atom = 42.5079
Neighbor list builds = 108
Dangerous builds = 0
next loopNum
jump SELF loop
if              "${variance} > 1000" then "run 2000" "next loopNum" "jump SELF loop" else "print 'continue'"
run 2000
Per MPI rank memory allocation (min/avg/max) = 2.964 | 2.964 | 2.964 Mbytes
Step Temp PotEng TotEng Press Lx Ly Lz v_variance 
 1996000    1185.2846   -229.13586   -219.63683   -7991.1523      9.27696      9.27696      9.27696    45389.073 
 1996100    1163.8611   -228.98936   -219.66203   -6572.5211      9.27696      9.27696      9.27696    151664.53 
 1996200     1127.807   -228.72528   -219.68689   -4639.3563      9.27696      9.27696      9.27696    295458.92 
 1996300     1104.572   -228.56355   -219.71137   -3026.2672      9.27696      9.27696      9.27696    208620.32 
 1996400    1087.2149    -228.4487   -219.73562   -2686.6602      9.27696      9.27696      9.27696    21462.614 
 1996500    1078.0678   -228.39954   -219.75976   -2294.5228      9.27696      9.27696      9.27696     51848.37 
 1996600    1072.7171   -228.38077   -219.78388   -3156.9972      9.27696      9.27696      9.27696    83859.944 
 1996700    1046.2021   -228.19224   -219.80784   -1777.8377      9.27696      9.27696      9.27696    212538.49 
 1996800    950.71144   -227.44968   -219.83055    1817.3143      9.27696      9.27696      9.27696      1150201 
 1996900    849.30537   -226.65711   -219.85067    5629.4858      9.27696      9.27696      9.27696    1224137.7 
 1997000      868.573    -226.8304   -219.86955    5589.5624      9.27696      9.27696      9.27696    56973.641 
 1997100    1001.7113   -227.91793   -219.89009    1143.5781      9.27696      9.27696      9.27696    1834527.6 
 1997200    1150.7723    -229.1363   -219.91386   -3991.5369      9.27696      9.27696      9.27696    2239398.6 
 1997300    1228.1518   -229.78308   -219.94051   -7675.4506      9.27696      9.27696      9.27696    1064496.5 
 1997400    1203.2175   -229.61084    -219.9681   -7236.8854      9.27696      9.27696      9.27696    44617.485 
 1997500    1118.8338   -228.96108   -219.99461    -4729.476      9.27696      9.27696      9.27696    640425.83 
 1997600    1039.5949   -228.35082   -220.01938   -3093.8311      9.27696      9.27696      9.27696    232611.13 
 1997700    987.14002   -227.95368   -220.04261   -2392.9104      9.27696      9.27696      9.27696    33463.797 
 1997800    959.86617   -227.75734   -220.06485   -1896.5958      9.27696      9.27696      9.27696    29751.693 
 1997900    966.87794   -227.83536   -220.08668   -2860.2691      9.27696      9.27696      9.27696    55755.258 
 1998000    997.43467   -228.10247    -220.1089   -4698.8405      9.27696      9.27696      9.27696     378258.7 
Loop time of 0.272668 on 1 procs for 2000 steps with 63 atoms

Performance: 63.374 ns/day, 0.379 hours/ns, 7334.934 timesteps/s
100.0% CPU use with 1 MPI tasks x 1 OpenMP threads

MPI task timing breakdown:
Section |  min time  |  avg time  |  max time  |%varavg| %total
---------------------------------------------------------------
Pair    | 0.24645    | 0.24645    | 0.24645    |   0.0 | 90.39
Neigh   | 0.0079285  | 0.0079285  | 0.0079285  |   0.0 |  2.91
Comm    | 0.0058785  | 0.0058785  | 0.0058785  |   0.0 |  2.16
Output  | 0.00023929 | 0.00023929 | 0.00023929 |   0.0 |  0.09
Modify  | 0.010671   | 0.010671   | 0.010671   |   0.0 |  3.91
Other   |            | 0.001498   |            |       |  0.55

Nlocal:    63 ave 63 max 63 min
Histogram: 1 0 0 0 0 0 0 0 0 0
Nghost:    813 ave 813 max 813 min
Histogram: 1 0 0 0 0 0 0 0 0 0
Neighs:    2702 ave 2702 max 2702 min
Histogram: 1 0 0 0 0 0 0 0 0 0

Total # of neighbors = 2702
Ave neighs/atom = 42.8889
Neighbor list builds = 98
Dangerous builds = 0
next loopNum
jump SELF loop
if              "${variance} > 1000" then "run 2000" "next loopNum" "jump SELF loop" else "print 'continue'"
run 2000
Per MPI rank memory allocation (min/avg/max) = 2.964 | 2.964 | 2.964 Mbytes
Step Temp PotEng TotEng Press Lx Ly Lz v_variance 
 1998000    997.43467   -228.10247    -220.1089   -4698.8405      9.27696      9.27696      9.27696     378258.7 
 1998100    1000.1922   -228.14716   -220.13149    -5611.348      9.27696      9.27696      9.27696    75987.309 
 1998200    983.16409   -228.03293   -220.15372   -5703.9051      9.27696      9.27696      9.27696    9791.4563 
 1998300    989.32328   -228.10424   -220.17568    -5732.398      9.27696      9.27696      9.27696    15510.629 
 1998400    1022.5869   -228.39308   -220.19793   -6178.6127      9.27696      9.27696      9.27696    39019.219 
 1998500    1075.1955   -228.83786   -220.22111    -7427.973      9.27696      9.27696      9.27696    132281.08 
 1998600    1098.0857   -229.04542   -220.24522   -7241.2505      9.27696      9.27696      9.27696    25871.707 
 1998700    1045.3812   -228.64685   -220.26903   -5216.5584      9.27696      9.27696      9.27696    577150.87 
 1998800    967.45131   -228.04441   -220.29113   -1568.7691      9.27696      9.27696      9.27696    1110649.4 
 1998900    945.98405   -227.89311   -220.31187   -613.95085      9.27696      9.27696      9.27696    142477.43 
 1999000    990.07093   -228.26724   -220.33269   -2381.2784      9.27696      9.27696      9.27696    269246.25 
 1999100    1049.6101   -228.76625   -220.35454   -5230.0629      9.27696      9.27696      9.27696    695319.04 
 1999200    1080.4232   -229.03595    -220.3773   -6754.6557      9.27696      9.27696      9.27696    164121.74 
 1999300    1070.7567   -228.98138    -220.4002   -6739.6572      9.27696      9.27696      9.27696    8987.6103 
 1999400     1034.509    -228.7132   -220.42251   -5240.6094      9.27696      9.27696      9.27696    244501.89 
 1999500    991.85059   -228.39266   -220.44384   -3832.0846      9.27696      9.27696      9.27696    192573.12 
 1999600    951.79094   -228.09182   -220.46404     -3022.04      9.27696      9.27696      9.27696    68263.435 
 1999700    938.82621   -228.00722   -220.48335   -3562.5999      9.27696      9.27696      9.27696    58747.195 
 1999800    981.40107   -228.36777    -220.5027   -5524.8345      9.27696      9.27696      9.27696    315589.87 
 1999900     1033.037   -228.80176   -220.52286   -7339.1505      9.27696      9.27696      9.27696    347329.59 
 2000000    1033.9702   -228.82981   -220.54344   -7084.9489      9.27696      9.27696      9.27696    15590.796 
Loop time of 0.274014 on 1 procs for 2000 steps with 63 atoms

Performance: 63.063 ns/day, 0.381 hours/ns, 7298.907 timesteps/s
100.0% CPU use with 1 MPI tasks x 1 OpenMP threads

MPI task timing breakdown:
Section |  min time  |  avg time  |  max time  |%varavg| %total
---------------------------------------------------------------
Pair    | 0.24813    | 0.24813    | 0.24813    |   0.0 | 90.55
Neigh   | 0.0079326  | 0.0079326  | 0.0079326  |   0.0 |  2.89
Comm    | 0.0060085  | 0.0060085  | 0.0060085  |   0.0 |  2.19
Output  | 0.00022643 | 0.00022643 | 0.00022643 |   0.0 |  0.08
Modify  | 0.010206   | 0.010206   | 0.010206   |   0.0 |  3.72
Other   |            | 0.001511   |            |       |  0.55

Nlocal:    63 ave 63 max 63 min
Histogram: 1 0 0 0 0 0 0 0 0 0
Nghost:    796 ave 796 max 796 min
Histogram: 1 0 0 0 0 0 0 0 0 0
Neighs:    2672 ave 2672 max 2672 min
Histogram: 1 0 0 0 0 0 0 0 0 0

Total # of neighbors = 2672
Ave neighs/atom = 42.4127
Neighbor list builds = 98
Dangerous builds = 0
next loopNum
jump SELF loop
if              "${variance} > 1000" then "run 2000" "next loopNum" "jump SELF loop" else "print 'continue'"
run 2000
Per MPI rank memory allocation (min/avg/max) = 2.964 | 2.964 | 2.964 Mbytes
Step Temp PotEng TotEng Press Lx Ly Lz v_variance 
 2000000    1033.9702   -228.82981   -220.54344   -7084.9489      9.27696      9.27696      9.27696    15590.796 
 2000100    965.13353   -228.29784   -220.56313   -3392.4802      9.27696      9.27696      9.27696    1291928.7 
 2000200    867.97026   -227.53685   -220.58083    985.56852      9.27696      9.27696      9.27696    1575046.7 
 2000300    822.08757   -227.18495   -220.59664     3232.477      9.27696      9.27696      9.27696    533429.95 
 2000400    871.18685   -227.59383   -220.61202    426.29474      9.27696      9.27696      9.27696    696048.41 
 2000500    980.02193   -228.48257   -220.62855   -4950.8808      9.27696      9.27696      9.27696    2519616.3 
 2000600    1078.1911   -229.28749   -220.64673   -10635.192      9.27696      9.27696      9.27696    2675988.3 
 2000700    1135.0615   -229.76268   -220.66615   -13850.633      9.27696      9.27696      9.27696    905528.75 
 2000800     1170.098   -230.06356   -220.68625   -15640.496      9.27696      9.27696      9.27696    230167.73 
 2000900    1201.7707   -230.33806   -220.70691   -17403.035      9.27696      9.27696      9.27696    319777.42 
 2001000    1215.4551    -230.4689   -220.72809   -18166.084      9.27696      9.27696      9.27696    56653.689 
 2001100    1195.4906   -230.33007   -220.74926   -16075.952      9.27696      9.27696      9.27696    289231.05 
 2001200    1150.3053   -229.98857   -220.76988   -13134.262      9.27696      9.27696      9.27696    758684.34 
 2001300    1103.1138   -229.63009   -220.78959   -10268.419      9.27696      9.27696      9.27696    812218.31 
 2001400    1081.7205   -229.47756   -220.80851   -9065.0787      9.27696      9.27696      9.27696    78166.471 
 2001500     1095.381   -229.60571   -220.82718   -10205.742      9.27696      9.27696      9.27696    112396.16 
 2001600    1104.8462   -229.70033   -220.84595   -11427.832      9.27696      9.27696      9.27696    156814.83 
 2001700    1068.0343   -229.42368   -220.86431   -11224.719      9.27696      9.27696      9.27696    35507.682 
 2001800    1010.7015   -228.98151   -220.88162    -9333.732      9.27696      9.27696      9.27696    281161.98 
 2001900    958.82019   -228.58185   -220.89774   -6628.5351      9.27696      9.27696      9.27696    614022.18 
 2002000     905.1266   -228.16639   -220.91259   -4698.5269      9.27696      9.27696      9.27696    413395.42 
Loop time of 0.267492 on 1 procs for 2000 steps with 63 atoms

Performance: 64.600 ns/day, 0.372 hours/ns, 7476.867 timesteps/s
100.0% CPU use with 1 MPI tasks x 1 OpenMP threads

MPI task timing breakdown:
Section |  min time  |  avg time  |  max time  |%varavg| %total
---------------------------------------------------------------
Pair    | 0.2425     | 0.2425     | 0.2425     |   0.0 | 90.66
Neigh   | 0.00756    | 0.00756    | 0.00756    |   0.0 |  2.83
Comm    | 0.0057622  | 0.0057622  | 0.0057622  |   0.0 |  2.15
Output  | 0.00025054 | 0.00025054 | 0.00025054 |   0.0 |  0.09
Modify  | 0.0099325  | 0.0099325  | 0.0099325  |   0.0 |  3.71
Other   |            | 0.001489   |            |       |  0.56

Nlocal:    63 ave 63 max 63 min
Histogram: 1 0 0 0 0 0 0 0 0 0
Nghost:    783 ave 783 max 783 min
Histogram: 1 0 0 0 0 0 0 0 0 0
Neighs:    2690 ave 2690 max 2690 min
Histogram: 1 0 0 0 0 0 0 0 0 0

Total # of neighbors = 2690
Ave neighs/atom = 42.6984
Neighbor list builds = 92
Dangerous builds = 0
next loopNum
jump SELF loop
if              "${variance} > 1000" then "run 2000" "next loopNum" "jump SELF loop" else "print 'continue'"
run 2000
Per MPI rank memory allocation (min/avg/max) = 2.964 | 2.964 | 2.964 Mbytes
Step Temp PotEng TotEng Press Lx Ly Lz v_variance 
 2002000     905.1266   -228.16639   -220.91259   -4698.5269      9.27696      9.27696      9.27696    413395.42 
 2002100     901.7797   -228.15342   -220.92644   -3867.2214      9.27696      9.27696      9.27696    68144.739 
 2002200    974.99545   -228.75417   -220.94044   -5995.5257      9.27696      9.27696      9.27696    518069.89 
 2002300    1071.0844   -229.53924   -220.95543   -8929.5824      9.27696      9.27696      9.27696    645444.87 
 2002400    1150.7824   -230.19402   -220.97151    -11400.55      9.27696      9.27696      9.27696    555300.59 
 2002500    1190.1383   -230.52628   -220.98836   -12841.807      9.27696      9.27696      9.27696    226847.28 
 2002600    1181.0491   -230.47043   -221.00535   -12766.246      9.27696      9.27696      9.27696    10954.861 
 2002700    1159.7959   -230.31686    -221.0221   -12354.903      9.27696      9.27696      9.27696    22559.606 
 2002800    1160.4115   -230.33827   -221.03859   -12585.131      9.27696      9.27696      9.27696    33030.733 
 2002900    1147.6049   -230.25199   -221.05494   -12266.071      9.27696      9.27696      9.27696    33291.751 
 2003000    1073.2195    -229.6715   -221.07058   -10122.166      9.27696      9.27696      9.27696    457012.45 
 2003100    966.40107   -228.82949   -221.08462   -6337.6187      9.27696      9.27696      9.27696    1150299.7 
 2003200    912.92165   -228.41335   -221.09708   -4796.7367      9.27696      9.27696      9.27696    239096.65 
 2003300    959.88108   -228.80171    -221.1091   -7540.1617      9.27696      9.27696      9.27696    697157.62 
 2003400     1059.113   -229.60961   -221.12174   -12334.434      9.27696      9.27696      9.27696    1841966.8 
 2003500    1123.1392    -230.1362   -221.13522   -16297.463      9.27696      9.27696      9.27696    1312694.3 
 2003600    1119.4916   -230.12066   -221.14891   -16439.411      9.27696      9.27696      9.27696    55996.072 
 2003700    1084.0133   -229.84961   -221.16219   -15213.699      9.27696      9.27696      9.27696    129157.02 
 2003800    1047.8643   -229.57252    -221.1748   -13279.543      9.27696      9.27696      9.27696    402927.88 
 2003900     1021.711   -229.37493   -221.18681   -11501.051      9.27696      9.27696      9.27696    253394.71 
 2004000    1004.5875   -229.24918   -221.19828   -10188.367      9.27696      9.27696      9.27696    168828.25 
Loop time of 0.270065 on 1 procs for 2000 steps with 63 atoms

Performance: 63.985 ns/day, 0.375 hours/ns, 7405.616 timesteps/s
100.0% CPU use with 1 MPI tasks x 1 OpenMP threads

MPI task timing breakdown:
Section |  min time  |  avg time  |  max time  |%varavg| %total
---------------------------------------------------------------
Pair    | 0.24372    | 0.24372    | 0.24372    |   0.0 | 90.25
Neigh   | 0.0084938  | 0.0084938  | 0.0084938  |   0.0 |  3.15
Comm    | 0.0058989  | 0.0058989  | 0.0058989  |   0.0 |  2.18
Output  | 0.00024926 | 0.00024926 | 0.00024926 |   0.0 |  0.09
Modify  | 0.010213   | 0.010213   | 0.010213   |   0.0 |  3.78
Other   |            | 0.001486   |            |       |  0.55

Nlocal:    63 ave 63 max 63 min
Histogram: 1 0 0 0 0 0 0 0 0 0
Nghost:    782 ave 782 max 782 min
Histogram: 1 0 0 0 0 0 0 0 0 0
Neighs:    2681 ave 2681 max 2681 min
Histogram: 1 0 0 0 0 0 0 0 0 0

Total # of neighbors = 2681
Ave neighs/atom = 42.5556
Neighbor list builds = 99
Dangerous builds = 0
