
units 		metal
dimension 	3
boundary 	p p p
atom_style 	atomic


#--------------Create Atom----------------------------

read_data	data.CuNi${SIMNUM} #append num for atoms or time
read_data	data.CuNi2 
  orthogonal box = (-0.02 -0.02 -0.02) to (4.62 4.62 4.62)
  1 by 1 by 1 MPI processor grid
  reading atoms ...
  14 atoms
  reading velocities ...
  14 velocities


#---------------Define Interatomic Potential----------

pair_style eam/alloy
pair_coeff * * CuNi.eam.alloy Ni Cu
Reading potential file CuNi.eam.alloy with DATE: 2014-07-11
neighbor .05 bin
neigh_modify delay 10 check yes

#---------------Define Settings--------------


#---------------Specify Volume------------------------

change_box all x scale ${SCALE} y scale ${SCALE} z scale ${SCALE}
change_box all x scale 1.02 y scale ${SCALE} z scale ${SCALE}
change_box all x scale 1.02 y scale 1.02 z scale ${SCALE}
change_box all x scale 1.02 y scale 1.02 z scale 1.02
  orthogonal box = (-0.0664 -0.02 -0.02) to (4.6664 4.62 4.62)
  orthogonal box = (-0.0664 -0.0664 -0.02) to (4.6664 4.6664 4.62)
  orthogonal box = (-0.0664 -0.0664 -0.0664) to (4.6664 4.6664 4.6664)

#---------------Run Minimization----------------------

reset_timestep 0
timestep 0.0001
thermo          100
thermo_style    custom step temp pe etotal press lx ly lz



min_style cg # use conjugate gradient method
minimize 1.0e-4 1.0e-6 100 100000
WARNING: Using 'neigh_modify every 1 delay 0 check yes' setting during minimization (src/min.cpp:168)
Neighbor list info ...
  update every 1 steps, delay 0 steps, check yes
  max neighbors/atom: 2000, page size: 100000
  master list distance cutoff = 6.44433
  ghost atom cutoff = 6.44433
  binsize = 3.22217, bins = 2 2 2
  1 neighbor lists, perpetual/occasional/extra = 1 0 0
  (1) pair eam/alloy, perpetual
      attributes: half, newton on
      pair build: half/bin/atomonly/newton
      stencil: half/bin/3d/newton
      bin: standard
Per MPI rank memory allocation (min/avg/max) = 4.096 | 4.096 | 4.096 Mbytes
Step Temp PotEng TotEng Press Lx Ly Lz 
       0            0    10733.144    10733.144     24246882       4.7328       4.7328       4.7328 
      73            0   -23.344828   -23.344828    1755327.7       4.7328       4.7328       4.7328 
Loop time of 0.00985625 on 1 procs for 73 steps with 14 atoms

100.0% CPU use with 1 MPI tasks x 1 OpenMP threads

Minimization stats:
  Stopping criterion = energy tolerance
  Energy initial, next-to-last, final = 
         10733.1440647     -23.3434665595     -23.3448278955
  Force two-norm initial, final = 14444.5 0.236095
  Force max component initial, final = 3473.21 0.0746952
  Final line search alpha, max atom move = 0.625372 0.0467123
  Iterations, force evaluations = 73 125

MPI task timing breakdown:
Section |  min time  |  avg time  |  max time  |%varavg| %total
---------------------------------------------------------------
Pair    | 0.0061849  | 0.0061849  | 0.0061849  |   0.0 | 62.75
Neigh   | 0.0023632  | 0.0023632  | 0.0023632  |   0.0 | 23.98
Comm    | 0.0010183  | 0.0010183  | 0.0010183  |   0.0 | 10.33
Output  | 0          | 0          | 0          |   0.0 |  0.00
Modify  | 0          | 0          | 0          |   0.0 |  0.00
Other   |            | 0.0002897  |            |       |  2.94

Nlocal:    14 ave 14 max 14 min
Histogram: 1 0 0 0 0 0 0 0 0 0
Nghost:    722 ave 722 max 722 min
Histogram: 1 0 0 0 0 0 0 0 0 0
Neighs:    1007 ave 1007 max 1007 min
Histogram: 1 0 0 0 0 0 0 0 0 0

Total # of neighbors = 1007
Ave neighs/atom = 71.9286
Neighbor list builds = 121
Dangerous builds = 117


reset_timestep 0


#------ Make variables which I can use to check the pressure and temperature--------
compute         my_temp all temp
compute         mypress all pressure my_temp
variable        glpress equal "c_mypress"

fix             avepress all ave/time 1 100 100 c_mypress mode scalar ave one start 1000 #file ave.press
variable        presssq equal "v_glpress * v_glpress"
fix             avepresssq all ave/time 1 100 100 v_presssq mode scalar ave one start 1000 #file ave.presssq
variable        variance equal  "f_avepresssq - f_avepress*f_avepress"


#---------------SPECIFYING ENSEMBLE----------------------
fix 1 all nvt temp ${TEMP} ${TEMP} 1.0
fix 1 all nvt temp 1000 ${TEMP} 1.0
fix 1 all nvt temp 1000 1000 1.0


#----------------Run Simulation------------------------
# Do a short run to have data to average.
thermo          100
thermo_style    custom step temp pe etotal press lx ly lz v_variance

run 4000
Per MPI rank memory allocation (min/avg/max) = 2.972 | 2.972 | 2.972 Mbytes
Step Temp PotEng TotEng Press Lx Ly Lz v_variance 
       0            0   -23.344828   -23.344828    1755327.7       4.7328       4.7328       4.7328            0 
     100   0.19416512   -23.345154   -23.344828      1755334       4.7328       4.7328       4.7328            0 
     200   0.35653789   -23.345427   -23.344828    1755149.3       4.7328       4.7328       4.7328            0 
     300   0.39548469   -23.345492   -23.344827    1755552.4       4.7328       4.7328       4.7328            0 
     400   0.56811741   -23.345782   -23.344827    1755741.9       4.7328       4.7328       4.7328            0 
     500   0.72647209   -23.346047   -23.344826    1755863.2       4.7328       4.7328       4.7328            0 
     600   0.89181079   -23.346323   -23.344824      1755891       4.7328       4.7328       4.7328            0 
     700    1.0164917    -23.34653   -23.344822    1755859.5       4.7328       4.7328       4.7328            0 
     800    1.1454358   -23.346744    -23.34482    1755757.2       4.7328       4.7328       4.7328            0 
     900    1.2688756   -23.346949   -23.344816    1755182.3       4.7328       4.7328       4.7328            0 
    1000    1.1715029   -23.346781   -23.344812    1754599.2       4.7328       4.7328       4.7328    64428.305 
    1100    1.0925565   -23.346644   -23.344808    1754521.9       4.7328       4.7328       4.7328    524.37402 
    1200    1.1027483   -23.346657   -23.344804    1754194.1       4.7328       4.7328       4.7328    16593.381 
    1300   0.99879401   -23.346478     -23.3448    1754180.9       4.7328       4.7328       4.7328    25.016602 
    1400   0.84564836   -23.346216   -23.344795    1754248.5       4.7328       4.7328       4.7328     393.5166 
    1500   0.69533396    -23.34596   -23.344792    1754583.5       4.7328       4.7328       4.7328    18996.719 
    1600   0.55998815   -23.345729   -23.344788      1754580       4.7328       4.7328       4.7328    12.126953 
    1700   0.43287284   -23.345513   -23.344786    1754516.4       4.7328       4.7328       4.7328    377.38184 
    1800   0.39129563   -23.345441   -23.344783    1754523.4       4.7328       4.7328       4.7328    25.099609 
    1900   0.49407444   -23.345611    -23.34478      1754651       4.7328       4.7328       4.7328    1367.5171 
    2000   0.50137738    -23.34562   -23.344777    1755128.1       4.7328       4.7328       4.7328    23569.732 
    2100   0.47129448   -23.345566   -23.344774      1755319       4.7328       4.7328       4.7328    3116.2271 
    2200   0.58155527   -23.345747    -23.34477    1755374.4       4.7328       4.7328       4.7328    268.65137 
    2300   0.70992807   -23.345958   -23.344765    1755328.2       4.7328       4.7328       4.7328    204.34033 
    2400   0.77957409   -23.346069   -23.344759    1755273.9       4.7328       4.7328       4.7328    252.82568 
    2500   0.80671341   -23.346108   -23.344753    1755282.9       4.7328       4.7328       4.7328    14406.695 
    2600   0.88466604   -23.346232   -23.344745    1755402.7       4.7328       4.7328       4.7328    1232.3506 
    2700    0.9028524   -23.346254   -23.344737    1755477.4       4.7328       4.7328       4.7328     487.5459 
    2800   0.79331759   -23.346062   -23.344729    1755706.2       4.7328       4.7328       4.7328    7619.1416 
    2900   0.83462785   -23.346124   -23.344721    1755866.2       4.7328       4.7328       4.7328    9512.7495 
    3000   0.89442655   -23.346216   -23.344713    1756036.2       4.7328       4.7328       4.7328    15884.644 
    3100   0.77232464   -23.346002   -23.344704      1755732       4.7328       4.7328       4.7328    2353.4907 
    3200   0.71470302   -23.345897   -23.344696    1755976.2       4.7328       4.7328       4.7328    7246.0894 
    3300    0.6989851   -23.345863   -23.344688    1755920.9       4.7328       4.7328       4.7328    255.91943 
    3400   0.75429478   -23.345948    -23.34468    1756033.7       4.7328       4.7328       4.7328    1888.6333 
    3500   0.86993621   -23.346133   -23.344671    1755699.9       4.7328       4.7328       4.7328     18941.16 
    3600   0.90243949   -23.346177    -23.34466    1755717.4       4.7328       4.7328       4.7328    36.597168 
    3700    0.9709916    -23.34628   -23.344649    1755777.4       4.7328       4.7328       4.7328    310.67236 
    3800    0.9739714   -23.346273   -23.344636    1755824.3       4.7328       4.7328       4.7328    191.36475 
    3900   0.93290731   -23.346192   -23.344624    1755823.6       4.7328       4.7328       4.7328    1.9658203 
    4000   0.99647763   -23.346286   -23.344612    1755807.5       4.7328       4.7328       4.7328    22.166992 
Loop time of 0.217525 on 1 procs for 4000 steps with 14 atoms

Performance: 158.878 ns/day, 0.151 hours/ns, 18388.670 timesteps/s
100.0% CPU use with 1 MPI tasks x 1 OpenMP threads

MPI task timing breakdown:
Section |  min time  |  avg time  |  max time  |%varavg| %total
---------------------------------------------------------------
Pair    | 0.19207    | 0.19207    | 0.19207    |   0.0 | 88.30
Neigh   | 3.0435e-05 | 3.0435e-05 | 3.0435e-05 |   0.0 |  0.01
Comm    | 0.0096813  | 0.0096813  | 0.0096813  |   0.0 |  4.45
Output  | 0.00045107 | 0.00045107 | 0.00045107 |   0.0 |  0.21
Modify  | 0.012965   | 0.012965   | 0.012965   |   0.0 |  5.96
Other   |            | 0.002328   |            |       |  1.07

Nlocal:    14 ave 14 max 14 min
Histogram: 1 0 0 0 0 0 0 0 0 0
Nghost:    722 ave 722 max 722 min
Histogram: 1 0 0 0 0 0 0 0 0 0
Neighs:    1004 ave 1004 max 1004 min
Histogram: 1 0 0 0 0 0 0 0 0 0

Total # of neighbors = 1004
Ave neighs/atom = 71.7143
Neighbor list builds = 1
Dangerous builds = 0


# Begin lopping until the variance in the pressure is below a given value

variable        loopNum loop 1000

label           loop
if              "${variance} > 1000" then "run 2000" "next loopNum" "jump SELF loop" else "print 'continue'"
print 'continue'
continue



unfix		 avepress
unfix		 avepresssq
thermo 100
thermo_style custom step vol lx ly lz press
reset_timestep 0
shell echo ${loopNum} > loopNum${SIMNUM}.txt
shell echo 4 > loopNum${SIMNUM}.txt
shell echo 4 > loopNum2.txt
run 		${RUNNUMBER}
run 		500000
Per MPI rank memory allocation (min/avg/max) = 2.972 | 2.972 | 2.972 Mbytes
Step Volume Lx Ly Lz Press 
       0    106.01186       4.7328       4.7328       4.7328    1755807.5 
     100    106.01186       4.7328       4.7328       4.7328    1755568.3 
     200    106.01186       4.7328       4.7328       4.7328    1755509.3 
     300    106.01186       4.7328       4.7328       4.7328      1755111 
     400    106.01186       4.7328       4.7328       4.7328    1755177.6 
     500    106.01186       4.7328       4.7328       4.7328    1755087.7 
     600    106.01186       4.7328       4.7328       4.7328    1755090.4 
     700    106.01186       4.7328       4.7328       4.7328      1755113 
     800    106.01186       4.7328       4.7328       4.7328      1755115 
     900    106.01186       4.7328       4.7328       4.7328    1755089.5 
    1000    106.01186       4.7328       4.7328       4.7328    1755067.1 
    1100    106.01186       4.7328       4.7328       4.7328    1755077.6 
    1200    106.01186       4.7328       4.7328       4.7328    1754288.9 
    1300    106.01186       4.7328       4.7328       4.7328    1754156.5 
    1400    106.01186       4.7328       4.7328       4.7328    1754212.2 
    1500    106.01186       4.7328       4.7328       4.7328    1754264.4 
    1600    106.01186       4.7328       4.7328       4.7328    1754676.5 
    1700    106.01186       4.7328       4.7328       4.7328    1754864.6 
    1800    106.01186       4.7328       4.7328       4.7328    1755211.6 
    1900    106.01186       4.7328       4.7328       4.7328    1754972.1 
    2000    106.01186       4.7328       4.7328       4.7328    1755244.9 
    2100    106.01186       4.7328       4.7328       4.7328    1756124.4 
    2200    106.01186       4.7328       4.7328       4.7328    1756162.4 
    2300    106.01186       4.7328       4.7328       4.7328      1755826 
    2400    106.01186       4.7328       4.7328       4.7328    1755731.4 
    2500    106.01186       4.7328       4.7328       4.7328    1755368.5 
    2600    106.01186       4.7328       4.7328       4.7328    1755349.5 
    2700    106.01186       4.7328       4.7328       4.7328    1755432.4 
    2800    106.01186       4.7328       4.7328       4.7328    1755839.9 
    2900    106.01186       4.7328       4.7328       4.7328      1755943 
    3000    106.01186       4.7328       4.7328       4.7328    1755960.3 
    3100    106.01186       4.7328       4.7328       4.7328    1756445.9 
    3200    106.01186       4.7328       4.7328       4.7328    1755078.5 
    3300    106.01186       4.7328       4.7328       4.7328    1755104.4 
    3400    106.01186       4.7328       4.7328       4.7328    1755046.4 
    3500    106.01186       4.7328       4.7328       4.7328    1754738.1 
    3600    106.01186       4.7328       4.7328       4.7328    1754927.2 
    3700    106.01186       4.7328       4.7328       4.7328    1754831.4 
    3800    106.01186       4.7328       4.7328       4.7328      1754716 
    3900    106.01186       4.7328       4.7328       4.7328    1754329.6 
    4000    106.01186       4.7328       4.7328       4.7328    1754173.1 
    4100    106.01186       4.7328       4.7328       4.7328    1754288.8 
    4200    106.01186       4.7328       4.7328       4.7328    1754802.6 
    4300    106.01186       4.7328       4.7328       4.7328    1755101.4 
    4400    106.01186       4.7328       4.7328       4.7328    1755141.3 
    4500    106.01186       4.7328       4.7328       4.7328      1755094 
    4600    106.01186       4.7328       4.7328       4.7328    1755026.8 
    4700    106.01186       4.7328       4.7328       4.7328    1755018.7 
    4800    106.01186       4.7328       4.7328       4.7328    1755036.6 
    4900    106.01186       4.7328       4.7328       4.7328    1755070.7 
    5000    106.01186       4.7328       4.7328       4.7328    1754896.6 
    5100    106.01186       4.7328       4.7328       4.7328    1755209.3 
    5200    106.01186       4.7328       4.7328       4.7328    1755481.1 
    5300    106.01186       4.7328       4.7328       4.7328    1755484.9 
    5400    106.01186       4.7328       4.7328       4.7328    1755495.4 
    5500    106.01186       4.7328       4.7328       4.7328    1755541.8 
    5600    106.01186       4.7328       4.7328       4.7328    1755590.8 
    5700    106.01186       4.7328       4.7328       4.7328    1755528.3 
    5800    106.01186       4.7328       4.7328       4.7328    1755198.2 
    5900    106.01186       4.7328       4.7328       4.7328    1755183.1 
    6000    106.01186       4.7328       4.7328       4.7328    1755520.9 
    6100    106.01186       4.7328       4.7328       4.7328    1755704.2 
    6200    106.01186       4.7328       4.7328       4.7328    1755686.7 
    6300    106.01186       4.7328       4.7328       4.7328    1755917.6 
    6400    106.01186       4.7328       4.7328       4.7328    1755781.6 
    6500    106.01186       4.7328       4.7328       4.7328    1755597.7 
    6600    106.01186       4.7328       4.7328       4.7328    1755656.9 
    6700    106.01186       4.7328       4.7328       4.7328    1755616.6 
    6800    106.01186       4.7328       4.7328       4.7328    1755273.9 
    6900    106.01186       4.7328       4.7328       4.7328    1755481.3 
    7000    106.01186       4.7328       4.7328       4.7328    1755434.6 
    7100    106.01186       4.7328       4.7328       4.7328    1755313.2 
    7200    106.01186       4.7328       4.7328       4.7328    1755098.1 
    7300    106.01186       4.7328       4.7328       4.7328    1754864.3 
    7400    106.01186       4.7328       4.7328       4.7328    1754701.2 
    7500    106.01186       4.7328       4.7328       4.7328    1754440.6 
    7600    106.01186       4.7328       4.7328       4.7328    1754512.4 
    7700    106.01186       4.7328       4.7328       4.7328    1754547.9 
    7800    106.01186       4.7328       4.7328       4.7328    1754795.7 
    7900    106.01186       4.7328       4.7328       4.7328    1754738.3 
    8000    106.01186       4.7328       4.7328       4.7328    1754658.3 
    8100    106.01186       4.7328       4.7328       4.7328    1754143.6 
    8200    106.01186       4.7328       4.7328       4.7328    1754211.8 
    8300    106.01186       4.7328       4.7328       4.7328    1754267.1 
    8400    106.01186       4.7328       4.7328       4.7328    1754560.4 
    8500    106.01186       4.7328       4.7328       4.7328    1755931.6 
    8600    106.01186       4.7328       4.7328       4.7328      1756212 
    8700    106.01186       4.7328       4.7328       4.7328    1756263.5 
    8800    106.01186       4.7328       4.7328       4.7328    1756041.8 
    8900    106.01186       4.7328       4.7328       4.7328    1755640.6 
    9000    106.01186       4.7328       4.7328       4.7328    1755324.4 
    9100    106.01186       4.7328       4.7328       4.7328    1755185.8 
    9200    106.01186       4.7328       4.7328       4.7328    1755183.4 
    9300    106.01186       4.7328       4.7328       4.7328    1755196.8 
    9400    106.01186       4.7328       4.7328       4.7328    1754881.5 
    9500    106.01186       4.7328       4.7328       4.7328    1754784.5 
    9600    106.01186       4.7328       4.7328       4.7328    1754756.6 
    9700    106.01186       4.7328       4.7328       4.7328      1755180 
    9800    106.01186       4.7328       4.7328       4.7328    1755479.9 
    9900    106.01186       4.7328       4.7328       4.7328    1755729.8 
   10000    106.01186       4.7328       4.7328       4.7328    1755789.5 
   10100    106.01186       4.7328       4.7328       4.7328      1755504 
   10200    106.01186       4.7328       4.7328       4.7328    1755236.8 
   10300    106.01186       4.7328       4.7328       4.7328    1755265.7 
   10400    106.01186       4.7328       4.7328       4.7328    1755235.7 
   10500    106.01186       4.7328       4.7328       4.7328    1754804.6 
   10600    106.01186       4.7328       4.7328       4.7328    1754341.8 
   10700    106.01186       4.7328       4.7328       4.7328    1754204.8 
   10800    106.01186       4.7328       4.7328       4.7328    1753863.4 
   10900    106.01186       4.7328       4.7328       4.7328    1754074.4 
   11000    106.01186       4.7328       4.7328       4.7328    1754124.3 
   11100    106.01186       4.7328       4.7328       4.7328    1754256.2 
   11200    106.01186       4.7328       4.7328       4.7328    1754670.8 
   11300    106.01186       4.7328       4.7328       4.7328    1754882.4 
   11400    106.01186       4.7328       4.7328       4.7328    1755023.6 
   11500    106.01186       4.7328       4.7328       4.7328    1755047.3 
   11600    106.01186       4.7328       4.7328       4.7328    1755080.2 
   11700    106.01186       4.7328       4.7328       4.7328    1755210.6 
   11800    106.01186       4.7328       4.7328       4.7328      1755377 
   11900    106.01186       4.7328       4.7328       4.7328    1755753.2 
   12000    106.01186       4.7328       4.7328       4.7328    1755528.4 
   12100    106.01186       4.7328       4.7328       4.7328    1755417.2 
   12200    106.01186       4.7328       4.7328       4.7328      1755600 
   12300    106.01186       4.7328       4.7328       4.7328    1755651.3 
   12400    106.01186       4.7328       4.7328       4.7328    1755934.3 
   12500    106.01186       4.7328       4.7328       4.7328      1756400 
   12600    106.01186       4.7328       4.7328       4.7328      1755986 
   12700    106.01186       4.7328       4.7328       4.7328    1755756.6 
   12800    106.01186       4.7328       4.7328       4.7328    1755729.7 
   12900    106.01186       4.7328       4.7328       4.7328      1755555 
   13000    106.01186       4.7328       4.7328       4.7328    1755495.1 
   13100    106.01186       4.7328       4.7328       4.7328    1755428.9 
   13200    106.01186       4.7328       4.7328       4.7328      1755665 
   13300    106.01186       4.7328       4.7328       4.7328      1755754 
   13400    106.01186       4.7328       4.7328       4.7328    1755885.3 
   13500    106.01186       4.7328       4.7328       4.7328    1755833.2 
   13600    106.01186       4.7328       4.7328       4.7328    1754978.7 
   13700    106.01186       4.7328       4.7328       4.7328    1754877.2 
   13800    106.01186       4.7328       4.7328       4.7328    1754686.2 
   13900    106.01186       4.7328       4.7328       4.7328    1754693.7 
   14000    106.01186       4.7328       4.7328       4.7328    1754770.6 
   14100    106.01186       4.7328       4.7328       4.7328    1755035.6 
   14200    106.01186       4.7328       4.7328       4.7328    1755068.4 
   14300    106.01186       4.7328       4.7328       4.7328    1755190.1 
   14400    106.01186       4.7328       4.7328       4.7328      1755288 
   14500    106.01186       4.7328       4.7328       4.7328    1754812.1 
   14600    106.01186       4.7328       4.7328       4.7328    1754707.1 
   14700    106.01186       4.7328       4.7328       4.7328    1754014.1 
   14800    106.01186       4.7328       4.7328       4.7328    1753758.7 
   14900    106.01186       4.7328       4.7328       4.7328    1754003.3 
   15000    106.01186       4.7328       4.7328       4.7328    1754411.1 
   15100    106.01186       4.7328       4.7328       4.7328    1754702.5 
   15200    106.01186       4.7328       4.7328       4.7328    1755031.5 
   15300    106.01186       4.7328       4.7328       4.7328    1756140.2 
   15400    106.01186       4.7328       4.7328       4.7328    1756179.7 
   15500    106.01186       4.7328       4.7328       4.7328      1755619 
   15600    106.01186       4.7328       4.7328       4.7328    1756104.1 
   15700    106.01186       4.7328       4.7328       4.7328    1755978.9 
   15800    106.01186       4.7328       4.7328       4.7328    1756186.1 
   15900    106.01186       4.7328       4.7328       4.7328    1756285.1 
   16000    106.01186       4.7328       4.7328       4.7328    1756510.2 
   16100    106.01186       4.7328       4.7328       4.7328    1756140.1 
   16200    106.01186       4.7328       4.7328       4.7328    1756220.9 
   16300    106.01186       4.7328       4.7328       4.7328    1755858.4 
   16400    106.01186       4.7328       4.7328       4.7328    1755725.6 
   16500    106.01186       4.7328       4.7328       4.7328    1755453.2 
   16600    106.01186       4.7328       4.7328       4.7328    1755477.3 
   16700    106.01186       4.7328       4.7328       4.7328    1755482.2 
   16800    106.01186       4.7328       4.7328       4.7328      1755479 
   16900    106.01186       4.7328       4.7328       4.7328    1755662.2 
   17000    106.01186       4.7328       4.7328       4.7328    1755311.1 
   17100    106.01186       4.7328       4.7328       4.7328    1755125.7 
   17200    106.01186       4.7328       4.7328       4.7328    1754687.5 
   17300    106.01186       4.7328       4.7328       4.7328    1754518.6 
   17400    106.01186       4.7328       4.7328       4.7328      1754265 
   17500    106.01186       4.7328       4.7328       4.7328    1753816.3 
   17600    106.01186       4.7328       4.7328       4.7328    1754031.6 
   17700    106.01186       4.7328       4.7328       4.7328    1753968.2 
   17800    106.01186       4.7328       4.7328       4.7328    1753878.5 
   17900    106.01186       4.7328       4.7328       4.7328    1754490.3 
   18000    106.01186       4.7328       4.7328       4.7328    1754839.9 
   18100    106.01186       4.7328       4.7328       4.7328    1754997.7 
   18200    106.01186       4.7328       4.7328       4.7328    1755022.6 
   18300    106.01186       4.7328       4.7328       4.7328    1754863.5 
   18400    106.01186       4.7328       4.7328       4.7328    1754995.8 
   18500    106.01186       4.7328       4.7328       4.7328    1755142.1 
   18600    106.01186       4.7328       4.7328       4.7328    1754951.7 
   18700    106.01186       4.7328       4.7328       4.7328    1755134.8 
   18800    106.01186       4.7328       4.7328       4.7328    1755045.7 
   18900    106.01186       4.7328       4.7328       4.7328    1754712.5 
   19000    106.01186       4.7328       4.7328       4.7328    1754654.5 
   19100    106.01186       4.7328       4.7328       4.7328    1754752.5 
   19200    106.01186       4.7328       4.7328       4.7328    1754912.4 
   19300    106.01186       4.7328       4.7328       4.7328    1755012.7 
   19400    106.01186       4.7328       4.7328       4.7328    1755135.7 
   19500    106.01186       4.7328       4.7328       4.7328    1755566.3 
   19600    106.01186       4.7328       4.7328       4.7328    1755705.8 
   19700    106.01186       4.7328       4.7328       4.7328    1755847.5 
   19800    106.01186       4.7328       4.7328       4.7328    1756170.3 
   19900    106.01186       4.7328       4.7328       4.7328    1756689.6 
   20000    106.01186       4.7328       4.7328       4.7328    1755800.3 
   20100    106.01186       4.7328       4.7328       4.7328    1755470.8 
   20200    106.01186       4.7328       4.7328       4.7328      1755399 
   20300    106.01186       4.7328       4.7328       4.7328    1755358.7 
   20400    106.01186       4.7328       4.7328       4.7328    1755237.5 
   20500    106.01186       4.7328       4.7328       4.7328    1755013.3 
   20600    106.01186       4.7328       4.7328       4.7328      1754847 
   20700    106.01186       4.7328       4.7328       4.7328      1754887 
   20800    106.01186       4.7328       4.7328       4.7328    1754949.4 
   20900    106.01186       4.7328       4.7328       4.7328    1754990.1 
   21000    106.01186       4.7328       4.7328       4.7328      1754899 
   21100    106.01186       4.7328       4.7328       4.7328    1754749.2 
   21200    106.01186       4.7328       4.7328       4.7328      1754640 
   21300    106.01186       4.7328       4.7328       4.7328    1754575.6 
   21400    106.01186       4.7328       4.7328       4.7328    1754610.2 
   21500    106.01186       4.7328       4.7328       4.7328    1754668.8 
   21600    106.01186       4.7328       4.7328       4.7328    1754778.9 
   21700    106.01186       4.7328       4.7328       4.7328    1754744.9 
   21800    106.01186       4.7328       4.7328       4.7328    1754937.2 
   21900    106.01186       4.7328       4.7328       4.7328    1755346.3 
   22000    106.01186       4.7328       4.7328       4.7328    1755464.7 
   22100    106.01186       4.7328       4.7328       4.7328    1756208.1 
   22200    106.01186       4.7328       4.7328       4.7328    1755927.7 
   22300    106.01186       4.7328       4.7328       4.7328    1755539.2 
   22400    106.01186       4.7328       4.7328       4.7328    1755418.4 
   22500    106.01186       4.7328       4.7328       4.7328      1755264 
   22600    106.01186       4.7328       4.7328       4.7328    1755316.2 
   22700    106.01186       4.7328       4.7328       4.7328    1755265.7 
   22800    106.01186       4.7328       4.7328       4.7328    1755225.8 
   22900    106.01186       4.7328       4.7328       4.7328    1755281.8 
   23000    106.01186       4.7328       4.7328       4.7328    1755472.6 
   23100    106.01186       4.7328       4.7328       4.7328    1755406.5 
   23200    106.01186       4.7328       4.7328       4.7328    1755022.3 
   23300    106.01186       4.7328       4.7328       4.7328      1754965 
   23400    106.01186       4.7328       4.7328       4.7328    1754713.3 
   23500    106.01186       4.7328       4.7328       4.7328    1754649.1 
   23600    106.01186       4.7328       4.7328       4.7328    1754848.9 
   23700    106.01186       4.7328       4.7328       4.7328    1755066.1 
   23800    106.01186       4.7328       4.7328       4.7328    1755419.8 
   23900    106.01186       4.7328       4.7328       4.7328      1755175 
   24000    106.01186       4.7328       4.7328       4.7328      1754869 
   24100    106.01186       4.7328       4.7328       4.7328    1754211.7 
   24200    106.01186       4.7328       4.7328       4.7328    1753886.4 
   24300    106.01186       4.7328       4.7328       4.7328    1753607.2 
   24400    106.01186       4.7328       4.7328       4.7328    1754023.2 
   24500    106.01186       4.7328       4.7328       4.7328    1754344.6 
   24600    106.01186       4.7328       4.7328       4.7328    1754937.2 
   24700    106.01186       4.7328       4.7328       4.7328    1755121.4 
   24800    106.01186       4.7328       4.7328       4.7328    1755144.5 
   24900    106.01186       4.7328       4.7328       4.7328    1755186.4 
   25000    106.01186       4.7328       4.7328       4.7328    1755294.1 
   25100    106.01186       4.7328       4.7328       4.7328    1755463.4 
   25200    106.01186       4.7328       4.7328       4.7328      1755269 
   25300    106.01186       4.7328       4.7328       4.7328    1755223.7 
   25400    106.01186       4.7328       4.7328       4.7328    1755437.7 
   25500    106.01186       4.7328       4.7328       4.7328    1755402.5 
   25600    106.01186       4.7328       4.7328       4.7328    1755392.7 
   25700    106.01186       4.7328       4.7328       4.7328    1755508.9 
   25800    106.01186       4.7328       4.7328       4.7328    1756112.7 
   25900    106.01186       4.7328       4.7328       4.7328    1756011.4 
   26000    106.01186       4.7328       4.7328       4.7328    1756309.7 
   26100    106.01186       4.7328       4.7328       4.7328    1755615.3 
   26200    106.01186       4.7328       4.7328       4.7328    1755267.6 
   26300    106.01186       4.7328       4.7328       4.7328    1754889.7 
   26400    106.01186       4.7328       4.7328       4.7328      1755394 
   26500    106.01186       4.7328       4.7328       4.7328    1755618.7 
   26600    106.01186       4.7328       4.7328       4.7328    1755740.1 
   26700    106.01186       4.7328       4.7328       4.7328      1755787 
   26800    106.01186       4.7328       4.7328       4.7328    1755930.2 
   26900    106.01186       4.7328       4.7328       4.7328    1755774.1 
   27000    106.01186       4.7328       4.7328       4.7328    1755803.7 
   27100    106.01186       4.7328       4.7328       4.7328    1755267.4 
   27200    106.01186       4.7328       4.7328       4.7328    1755310.5 
   27300    106.01186       4.7328       4.7328       4.7328    1754851.2 
   27400    106.01186       4.7328       4.7328       4.7328      1754995 
   27500    106.01186       4.7328       4.7328       4.7328    1754981.4 
   27600    106.01186       4.7328       4.7328       4.7328    1754938.3 
   27700    106.01186       4.7328       4.7328       4.7328    1754829.4 
   27800    106.01186       4.7328       4.7328       4.7328    1754852.6 
   27900    106.01186       4.7328       4.7328       4.7328    1754893.4 
   28000    106.01186       4.7328       4.7328       4.7328    1754847.3 
   28100    106.01186       4.7328       4.7328       4.7328    1754377.6 
   28200    106.01186       4.7328       4.7328       4.7328    1755235.2 
   28300    106.01186       4.7328       4.7328       4.7328    1755311.7 
   28400    106.01186       4.7328       4.7328       4.7328    1755164.7 
   28500    106.01186       4.7328       4.7328       4.7328    1755503.2 
   28600    106.01186       4.7328       4.7328       4.7328    1755273.6 
   28700    106.01186       4.7328       4.7328       4.7328    1755337.4 
   28800    106.01186       4.7328       4.7328       4.7328    1755981.5 
   28900    106.01186       4.7328       4.7328       4.7328    1755764.5 
   29000    106.01186       4.7328       4.7328       4.7328    1755773.1 
   29100    106.01186       4.7328       4.7328       4.7328    1756007.7 
   29200    106.01186       4.7328       4.7328       4.7328    1756208.1 
   29300    106.01186       4.7328       4.7328       4.7328    1755700.9 
   29400    106.01186       4.7328       4.7328       4.7328    1755917.7 
   29500    106.01186       4.7328       4.7328       4.7328    1756581.7 
   29600    106.01186       4.7328       4.7328       4.7328    1755987.1 
   29700    106.01186       4.7328       4.7328       4.7328    1755744.8 
   29800    106.01186       4.7328       4.7328       4.7328      1755749 
   29900    106.01186       4.7328       4.7328       4.7328    1755808.4 
   30000    106.01186       4.7328       4.7328       4.7328    1755821.4 
   30100    106.01186       4.7328       4.7328       4.7328    1755598.6 
   30200    106.01186       4.7328       4.7328       4.7328    1755089.1 
   30300    106.01186       4.7328       4.7328       4.7328    1755257.5 
   30400    106.01186       4.7328       4.7328       4.7328    1755493.7 
   30500    106.01186       4.7328       4.7328       4.7328    1755207.2 
   30600    106.01186       4.7328       4.7328       4.7328    1755036.1 
   30700    106.01186       4.7328       4.7328       4.7328    1754866.5 
   30800    106.01186       4.7328       4.7328       4.7328    1755058.2 
   30900    106.01186       4.7328       4.7328       4.7328    1755037.1 
   31000    106.01186       4.7328       4.7328       4.7328    1754791.1 
   31100    106.01186       4.7328       4.7328       4.7328      1754190 
   31200    106.01186       4.7328       4.7328       4.7328    1754200.8 
   31300    106.01186       4.7328       4.7328       4.7328    1753944.8 
   31400    106.01186       4.7328       4.7328       4.7328    1753898.7 
   31500    106.01186       4.7328       4.7328       4.7328    1753911.6 
   31600    106.01186       4.7328       4.7328       4.7328    1754448.9 
   31700    106.01186       4.7328       4.7328       4.7328      1754816 
   31800    106.01186       4.7328       4.7328       4.7328    1754415.3 
   31900    106.01186       4.7328       4.7328       4.7328      1753967 
   32000    106.01186       4.7328       4.7328       4.7328    1753863.1 
   32100    106.01186       4.7328       4.7328       4.7328    1754300.2 
   32200    106.01186       4.7328       4.7328       4.7328    1754579.9 
   32300    106.01186       4.7328       4.7328       4.7328    1755097.6 
   32400    106.01186       4.7328       4.7328       4.7328    1755606.3 
   32500    106.01186       4.7328       4.7328       4.7328    1756031.1 
   32600    106.01186       4.7328       4.7328       4.7328    1756125.8 
   32700    106.01186       4.7328       4.7328       4.7328    1756156.3 
   32800    106.01186       4.7328       4.7328       4.7328      1755969 
   32900    106.01186       4.7328       4.7328       4.7328    1756007.2 
   33000    106.01186       4.7328       4.7328       4.7328    1756309.2 
   33100    106.01186       4.7328       4.7328       4.7328    1756096.2 
   33200    106.01186       4.7328       4.7328       4.7328    1755828.8 
   33300    106.01186       4.7328       4.7328       4.7328      1755941 
   33400    106.01186       4.7328       4.7328       4.7328    1756137.8 
   33500    106.01186       4.7328       4.7328       4.7328    1755366.6 
   33600    106.01186       4.7328       4.7328       4.7328    1755523.9 
   33700    106.01186       4.7328       4.7328       4.7328    1755752.9 
   33800    106.01186       4.7328       4.7328       4.7328    1755212.8 
   33900    106.01186       4.7328       4.7328       4.7328    1755433.4 
   34000    106.01186       4.7328       4.7328       4.7328    1755085.2 
   34100    106.01186       4.7328       4.7328       4.7328    1755051.8 
   34200    106.01186       4.7328       4.7328       4.7328    1755066.3 
   34300    106.01186       4.7328       4.7328       4.7328    1755169.7 
   34400    106.01186       4.7328       4.7328       4.7328      1755154 
   34500    106.01186       4.7328       4.7328       4.7328    1755387.6 
   34600    106.01186       4.7328       4.7328       4.7328    1755467.9 
   34700    106.01186       4.7328       4.7328       4.7328    1755474.4 
   34800    106.01186       4.7328       4.7328       4.7328    1755537.2 
   34900    106.01186       4.7328       4.7328       4.7328      1755773 
   35000    106.01186       4.7328       4.7328       4.7328      1755919 
   35100    106.01186       4.7328       4.7328       4.7328    1755755.1 
   35200    106.01186       4.7328       4.7328       4.7328    1755244.8 
   35300    106.01186       4.7328       4.7328       4.7328    1755203.2 
   35400    106.01186       4.7328       4.7328       4.7328    1755289.9 
   35500    106.01186       4.7328       4.7328       4.7328    1755187.3 
   35600    106.01186       4.7328       4.7328       4.7328      1755868 
   35700    106.01186       4.7328       4.7328       4.7328    1756155.9 
   35800    106.01186       4.7328       4.7328       4.7328    1755661.6 
   35900    106.01186       4.7328       4.7328       4.7328    1756370.4 
   36000    106.01186       4.7328       4.7328       4.7328    1755707.1 
   36100    106.01186       4.7328       4.7328       4.7328    1755599.1 
   36200    106.01186       4.7328       4.7328       4.7328      1755993 
   36300    106.01186       4.7328       4.7328       4.7328    1756039.6 
   36400    106.01186       4.7328       4.7328       4.7328    1756532.9 
   36500    106.01186       4.7328       4.7328       4.7328    1756415.8 
   36600    106.01186       4.7328       4.7328       4.7328      1756190 
   36700    106.01186       4.7328       4.7328       4.7328      1756450 
   36800    106.01186       4.7328       4.7328       4.7328    1756600.7 
   36900    106.01186       4.7328       4.7328       4.7328      1755912 
   37000    106.01186       4.7328       4.7328       4.7328    1756475.6 
   37100    106.01186       4.7328       4.7328       4.7328    1756434.3 
   37200    106.01186       4.7328       4.7328       4.7328    1754701.2 
   37300    106.01186       4.7328       4.7328       4.7328      1753729 
   37400    106.01186       4.7328       4.7328       4.7328    1754064.5 
   37500    106.01186       4.7328       4.7328       4.7328    1754561.7 
   37600    106.01186       4.7328       4.7328       4.7328    1754569.6 
   37700    106.01186       4.7328       4.7328       4.7328    1754985.5 
   37800    106.01186       4.7328       4.7328       4.7328    1754850.1 
   37900    106.01186       4.7328       4.7328       4.7328    1754318.3 
   38000    106.01186       4.7328       4.7328       4.7328    1754376.1 
   38100    106.01186       4.7328       4.7328       4.7328    1754327.5 
   38200    106.01186       4.7328       4.7328       4.7328    1754841.4 
   38300    106.01186       4.7328       4.7328       4.7328      1754676 
   38400    106.01186       4.7328       4.7328       4.7328    1754647.1 
   38500    106.01186       4.7328       4.7328       4.7328    1754612.8 
   38600    106.01186       4.7328       4.7328       4.7328    1754977.5 
   38700    106.01186       4.7328       4.7328       4.7328    1755207.3 
   38800    106.01186       4.7328       4.7328       4.7328    1755156.5 
   38900    106.01186       4.7328       4.7328       4.7328    1755334.9 
   39000    106.01186       4.7328       4.7328       4.7328    1755673.2 
   39100    106.01186       4.7328       4.7328       4.7328    1755752.3 
   39200    106.01186       4.7328       4.7328       4.7328    1755703.1 
   39300    106.01186       4.7328       4.7328       4.7328    1755351.2 
   39400    106.01186       4.7328       4.7328       4.7328    1755661.6 
   39500    106.01186       4.7328       4.7328       4.7328      1755637 
   39600    106.01186       4.7328       4.7328       4.7328    1755479.6 
   39700    106.01186       4.7328       4.7328       4.7328    1755369.6 
   39800    106.01186       4.7328       4.7328       4.7328    1755314.2 
   39900    106.01186       4.7328       4.7328       4.7328    1755437.9 
   40000    106.01186       4.7328       4.7328       4.7328    1756148.3 
   40100    106.01186       4.7328       4.7328       4.7328    1755953.6 
   40200    106.01186       4.7328       4.7328       4.7328    1756292.9 
   40300    106.01186       4.7328       4.7328       4.7328      1756153 
   40400    106.01186       4.7328       4.7328       4.7328    1756140.6 
   40500    106.01186       4.7328       4.7328       4.7328    1756297.9 
   40600    106.01186       4.7328       4.7328       4.7328    1756343.3 
   40700    106.01186       4.7328       4.7328       4.7328    1756041.4 
   40800    106.01186       4.7328       4.7328       4.7328    1755747.9 
   40900    106.01186       4.7328       4.7328       4.7328    1755846.1 
   41000    106.01186       4.7328       4.7328       4.7328    1755580.5 
   41100    106.01186       4.7328       4.7328       4.7328    1755642.8 
   41200    106.01186       4.7328       4.7328       4.7328    1755296.2 
   41300    106.01186       4.7328       4.7328       4.7328    1754922.1 
   41400    106.01186       4.7328       4.7328       4.7328    1754362.2 
   41500    106.01186       4.7328       4.7328       4.7328    1753507.2 
   41600    106.01186       4.7328       4.7328       4.7328    1753305.5 
   41700    106.01186       4.7328       4.7328       4.7328    1753337.8 
   41800    106.01186       4.7328       4.7328       4.7328    1753463.2 
   41900    106.01186       4.7328       4.7328       4.7328    1753633.4 
   42000    106.01186       4.7328       4.7328       4.7328    1754088.3 
   42100    106.01186       4.7328       4.7328       4.7328    1754285.2 
   42200    106.01186       4.7328       4.7328       4.7328    1754650.3 
   42300    106.01186       4.7328       4.7328       4.7328    1754783.4 
   42400    106.01186       4.7328       4.7328       4.7328      1755261 
   42500    106.01186       4.7328       4.7328       4.7328    1755496.8 
   42600    106.01186       4.7328       4.7328       4.7328    1755999.5 
   42700    106.01186       4.7328       4.7328       4.7328    1756050.9 
   42800    106.01186       4.7328       4.7328       4.7328    1756269.3 
   42900    106.01186       4.7328       4.7328       4.7328    1755997.6 
   43000    106.01186       4.7328       4.7328       4.7328    1756429.6 
   43100    106.01186       4.7328       4.7328       4.7328    1755923.1 
   43200    106.01186       4.7328       4.7328       4.7328    1755903.9 
   43300    106.01186       4.7328       4.7328       4.7328    1756121.4 
   43400    106.01186       4.7328       4.7328       4.7328      1756790 
   43500    106.01186       4.7328       4.7328       4.7328    1756139.7 
   43600    106.01186       4.7328       4.7328       4.7328    1755855.2 
   43700    106.01186       4.7328       4.7328       4.7328    1755854.6 
   43800    106.01186       4.7328       4.7328       4.7328    1755929.5 
   43900    106.01186       4.7328       4.7328       4.7328    1755516.5 
   44000    106.01186       4.7328       4.7328       4.7328    1754985.2 
   44100    106.01186       4.7328       4.7328       4.7328    1755129.3 
   44200    106.01186       4.7328       4.7328       4.7328    1755071.5 
   44300    106.01186       4.7328       4.7328       4.7328    1755426.2 
   44400    106.01186       4.7328       4.7328       4.7328    1755678.6 
   44500    106.01186       4.7328       4.7328       4.7328    1755652.7 
   44600    106.01186       4.7328       4.7328       4.7328      1755645 
   44700    106.01186       4.7328       4.7328       4.7328    1755875.1 
   44800    106.01186       4.7328       4.7328       4.7328    1756283.6 
   44900    106.01186       4.7328       4.7328       4.7328    1756041.6 
   45000    106.01186       4.7328       4.7328       4.7328    1756037.6 
   45100    106.01186       4.7328       4.7328       4.7328    1755725.1 
   45200    106.01186       4.7328       4.7328       4.7328    1755088.6 
   45300    106.01186       4.7328       4.7328       4.7328    1755041.2 
   45400    106.01186       4.7328       4.7328       4.7328    1754483.9 
   45500    106.01186       4.7328       4.7328       4.7328    1754248.7 
   45600    106.01186       4.7328       4.7328       4.7328    1755722.5 
   45700    106.01186       4.7328       4.7328       4.7328    1755089.6 
   45800    106.01186       4.7328       4.7328       4.7328    1754974.5 
   45900    106.01186       4.7328       4.7328       4.7328    1755173.4 
   46000    106.01186       4.7328       4.7328       4.7328    1755277.5 
   46100    106.01186       4.7328       4.7328       4.7328    1755964.7 
   46200    106.01186       4.7328       4.7328       4.7328    1756200.6 
   46300    106.01186       4.7328       4.7328       4.7328    1756781.6 
   46400    106.01186       4.7328       4.7328       4.7328      1755914 
   46500    106.01186       4.7328       4.7328       4.7328    1756103.5 
   46600    106.01186       4.7328       4.7328       4.7328    1756393.6 
   46700    106.01186       4.7328       4.7328       4.7328    1756017.6 
   46800    106.01186       4.7328       4.7328       4.7328    1755331.8 
   46900    106.01186       4.7328       4.7328       4.7328    1755804.1 
   47000    106.01186       4.7328       4.7328       4.7328    1756617.7 
   47100    106.01186       4.7328       4.7328       4.7328    1756983.3 
   47200    106.01186       4.7328       4.7328       4.7328    1755301.5 
   47300    106.01186       4.7328       4.7328       4.7328    1755113.2 
   47400    106.01186       4.7328       4.7328       4.7328      1755402 
   47500    106.01186       4.7328       4.7328       4.7328    1756247.3 
   47600    106.01186       4.7328       4.7328       4.7328    1756141.4 
   47700    106.01186       4.7328       4.7328       4.7328      1756267 
   47800    106.01186       4.7328       4.7328       4.7328    1756099.7 
   47900    106.01186       4.7328       4.7328       4.7328      1756181 
   48000    106.01186       4.7328       4.7328       4.7328    1756093.8 
   48100    106.01186       4.7328       4.7328       4.7328    1756199.8 
   48200    106.01186       4.7328       4.7328       4.7328    1755850.8 
   48300    106.01186       4.7328       4.7328       4.7328    1755615.2 
   48400    106.01186       4.7328       4.7328       4.7328    1755636.6 
   48500    106.01186       4.7328       4.7328       4.7328    1755704.4 
   48600    106.01186       4.7328       4.7328       4.7328    1755257.7 
   48700    106.01186       4.7328       4.7328       4.7328    1755116.1 
   48800    106.01186       4.7328       4.7328       4.7328    1755191.6 
   48900    106.01186       4.7328       4.7328       4.7328    1755617.3 
   49000    106.01186       4.7328       4.7328       4.7328    1755690.2 
   49100    106.01186       4.7328       4.7328       4.7328    1755637.6 
   49200    106.01186       4.7328       4.7328       4.7328    1755886.7 
   49300    106.01186       4.7328       4.7328       4.7328    1756674.2 
   49400    106.01186       4.7328       4.7328       4.7328    1756876.2 
   49500    106.01186       4.7328       4.7328       4.7328    1757002.2 
   49600    106.01186       4.7328       4.7328       4.7328      1756919 
   49700    106.01186       4.7328       4.7328       4.7328    1756741.5 
   49800    106.01186       4.7328       4.7328       4.7328    1757030.6 
   49900    106.01186       4.7328       4.7328       4.7328    1756936.5 
   50000    106.01186       4.7328       4.7328       4.7328    1758068.7 
   50100    106.01186       4.7328       4.7328       4.7328    1758355.5 
   50200    106.01186       4.7328       4.7328       4.7328    1758021.3 
   50300    106.01186       4.7328       4.7328       4.7328    1757830.3 
   50400    106.01186       4.7328       4.7328       4.7328    1757286.2 
   50500    106.01186       4.7328       4.7328       4.7328    1756297.8 
   50600    106.01186       4.7328       4.7328       4.7328    1756091.8 
   50700    106.01186       4.7328       4.7328       4.7328    1755651.9 
   50800    106.01186       4.7328       4.7328       4.7328    1755881.5 
   50900    106.01186       4.7328       4.7328       4.7328    1755277.1 
   51000    106.01186       4.7328       4.7328       4.7328    1754245.6 
   51100    106.01186       4.7328       4.7328       4.7328    1755188.2 
   51200    106.01186       4.7328       4.7328       4.7328    1754281.8 
   51300    106.01186       4.7328       4.7328       4.7328    1753910.5 
   51400    106.01186       4.7328       4.7328       4.7328    1753239.8 
   51500    106.01186       4.7328       4.7328       4.7328    1752857.1 
   51600    106.01186       4.7328       4.7328       4.7328    1753537.6 
   51700    106.01186       4.7328       4.7328       4.7328    1754711.2 
   51800    106.01186       4.7328       4.7328       4.7328    1755058.1 
   51900    106.01186       4.7328       4.7328       4.7328    1753868.4 
   52000    106.01186       4.7328       4.7328       4.7328    1753630.2 
   52100    106.01186       4.7328       4.7328       4.7328    1754429.2 
   52200    106.01186       4.7328       4.7328       4.7328    1754579.6 
   52300    106.01186       4.7328       4.7328       4.7328    1754978.4 
   52400    106.01186       4.7328       4.7328       4.7328    1755493.2 
   52500    106.01186       4.7328       4.7328       4.7328    1755216.8 
   52600    106.01186       4.7328       4.7328       4.7328      1755264 
   52700    106.01186       4.7328       4.7328       4.7328      1755197 
   52800    106.01186       4.7328       4.7328       4.7328    1755907.6 
   52900    106.01186       4.7328       4.7328       4.7328    1756451.2 
   53000    106.01186       4.7328       4.7328       4.7328    1756562.3 
   53100    106.01186       4.7328       4.7328       4.7328    1756732.9 
   53200    106.01186       4.7328       4.7328       4.7328    1756611.7 
   53300    106.01186       4.7328       4.7328       4.7328    1756032.8 
   53400    106.01186       4.7328       4.7328       4.7328    1755414.7 
   53500    106.01186       4.7328       4.7328       4.7328    1755432.9 
   53600    106.01186       4.7328       4.7328       4.7328    1756121.7 
   53700    106.01186       4.7328       4.7328       4.7328    1756484.6 
   53800    106.01186       4.7328       4.7328       4.7328    1756096.8 
   53900    106.01186       4.7328       4.7328       4.7328      1755769 
   54000    106.01186       4.7328       4.7328       4.7328    1755817.7 
   54100    106.01186       4.7328       4.7328       4.7328    1756479.9 
   54200    106.01186       4.7328       4.7328       4.7328    1756418.7 
   54300    106.01186       4.7328       4.7328       4.7328    1756858.2 
   54400    106.01186       4.7328       4.7328       4.7328    1756838.4 
   54500    106.01186       4.7328       4.7328       4.7328      1755984 
   54600    106.01186       4.7328       4.7328       4.7328    1755398.1 
   54700    106.01186       4.7328       4.7328       4.7328    1754993.3 
   54800    106.01186       4.7328       4.7328       4.7328    1755451.9 
   54900    106.01186       4.7328       4.7328       4.7328      1755460 
   55000    106.01186       4.7328       4.7328       4.7328    1755237.4 
   55100    106.01186       4.7328       4.7328       4.7328    1755008.6 
   55200    106.01186       4.7328       4.7328       4.7328      1754846 
   55300    106.01186       4.7328       4.7328       4.7328    1755967.8 
   55400    106.01186       4.7328       4.7328       4.7328    1755581.3 
   55500    106.01186       4.7328       4.7328       4.7328    1755072.1 
   55600    106.01186       4.7328       4.7328       4.7328    1754840.1 
   55700    106.01186       4.7328       4.7328       4.7328    1754182.6 
   55800    106.01186       4.7328       4.7328       4.7328    1753894.5 
   55900    106.01186       4.7328       4.7328       4.7328    1753578.4 
   56000    106.01186       4.7328       4.7328       4.7328    1754515.1 
   56100    106.01186       4.7328       4.7328       4.7328    1755608.3 
   56200    106.01186       4.7328       4.7328       4.7328    1755941.7 
   56300    106.01186       4.7328       4.7328       4.7328    1756937.5 
   56400    106.01186       4.7328       4.7328       4.7328    1756226.8 
   56500    106.01186       4.7328       4.7328       4.7328      1756863 
   56600    106.01186       4.7328       4.7328       4.7328      1756766 
   56700    106.01186       4.7328       4.7328       4.7328      1755997 
   56800    106.01186       4.7328       4.7328       4.7328    1755515.1 
   56900    106.01186       4.7328       4.7328       4.7328    1757391.7 
   57000    106.01186       4.7328       4.7328       4.7328    1757893.3 
   57100    106.01186       4.7328       4.7328       4.7328    1757643.5 
   57200    106.01186       4.7328       4.7328       4.7328    1757154.2 
   57300    106.01186       4.7328       4.7328       4.7328      1757664 
   57400    106.01186       4.7328       4.7328       4.7328    1756557.9 
   57500    106.01186       4.7328       4.7328       4.7328      1757539 
   57600    106.01186       4.7328       4.7328       4.7328    1758016.8 
   57700    106.01186       4.7328       4.7328       4.7328    1758193.6 
   57800    106.01186       4.7328       4.7328       4.7328    1757952.3 
   57900    106.01186       4.7328       4.7328       4.7328    1756780.8 
   58000    106.01186       4.7328       4.7328       4.7328    1756201.7 
   58100    106.01186       4.7328       4.7328       4.7328    1756473.4 
   58200    106.01186       4.7328       4.7328       4.7328    1757388.3 
   58300    106.01186       4.7328       4.7328       4.7328    1757155.3 
   58400    106.01186       4.7328       4.7328       4.7328    1756728.2 
   58500    106.01186       4.7328       4.7328       4.7328    1755790.9 
   58600    106.01186       4.7328       4.7328       4.7328      1755689 
   58700    106.01186       4.7328       4.7328       4.7328    1755862.6 
   58800    106.01186       4.7328       4.7328       4.7328    1756283.8 
   58900    106.01186       4.7328       4.7328       4.7328    1756878.3 
   59000    106.01186       4.7328       4.7328       4.7328    1756669.7 
   59100    106.01186       4.7328       4.7328       4.7328    1756466.3 
   59200    106.01186       4.7328       4.7328       4.7328    1756612.1 
   59300    106.01186       4.7328       4.7328       4.7328    1756822.4 
   59400    106.01186       4.7328       4.7328       4.7328    1756657.3 
   59500    106.01186       4.7328       4.7328       4.7328    1757117.5 
   59600    106.01186       4.7328       4.7328       4.7328    1756952.8 
   59700    106.01186       4.7328       4.7328       4.7328    1756457.8 
   59800    106.01186       4.7328       4.7328       4.7328    1755671.7 
   59900    106.01186       4.7328       4.7328       4.7328      1755728 
   60000    106.01186       4.7328       4.7328       4.7328    1754625.6 
   60100    106.01186       4.7328       4.7328       4.7328    1754733.4 
   60200    106.01186       4.7328       4.7328       4.7328    1758005.4 
   60300    106.01186       4.7328       4.7328       4.7328    1757684.2 
   60400    106.01186       4.7328       4.7328       4.7328    1756743.2 
   60500    106.01186       4.7328       4.7328       4.7328    1755962.7 
   60600    106.01186       4.7328       4.7328       4.7328      1755574 
   60700    106.01186       4.7328       4.7328       4.7328    1756099.5 
   60800    106.01186       4.7328       4.7328       4.7328    1756380.3 
   60900    106.01186       4.7328       4.7328       4.7328    1756266.2 
   61000    106.01186       4.7328       4.7328       4.7328    1756162.8 
   61100    106.01186       4.7328       4.7328       4.7328    1756278.1 
   61200    106.01186       4.7328       4.7328       4.7328    1756062.3 
   61300    106.01186       4.7328       4.7328       4.7328    1756370.8 
   61400    106.01186       4.7328       4.7328       4.7328    1756689.8 
   61500    106.01186       4.7328       4.7328       4.7328    1757786.5 
   61600    106.01186       4.7328       4.7328       4.7328    1756832.9 
   61700    106.01186       4.7328       4.7328       4.7328    1756337.3 
   61800    106.01186       4.7328       4.7328       4.7328    1756171.9 
   61900    106.01186       4.7328       4.7328       4.7328    1757067.4 
   62000    106.01186       4.7328       4.7328       4.7328    1756683.6 
   62100    106.01186       4.7328       4.7328       4.7328    1755515.3 
   62200    106.01186       4.7328       4.7328       4.7328    1754969.9 
   62300    106.01186       4.7328       4.7328       4.7328    1754664.7 
   62400    106.01186       4.7328       4.7328       4.7328    1755372.5 
   62500    106.01186       4.7328       4.7328       4.7328    1755983.7 
   62600    106.01186       4.7328       4.7328       4.7328      1755797 
   62700    106.01186       4.7328       4.7328       4.7328    1756051.3 
   62800    106.01186       4.7328       4.7328       4.7328    1756947.3 
   62900    106.01186       4.7328       4.7328       4.7328    1756839.9 
   63000    106.01186       4.7328       4.7328       4.7328    1757193.4 
   63100    106.01186       4.7328       4.7328       4.7328      1756970 
   63200    106.01186       4.7328       4.7328       4.7328    1756823.2 
   63300    106.01186       4.7328       4.7328       4.7328    1757385.5 
   63400    106.01186       4.7328       4.7328       4.7328    1757816.1 
   63500    106.01186       4.7328       4.7328       4.7328    1757403.2 
   63600    106.01186       4.7328       4.7328       4.7328      1757611 
   63700    106.01186       4.7328       4.7328       4.7328    1759022.3 
   63800    106.01186       4.7328       4.7328       4.7328    1757074.2 
   63900    106.01186       4.7328       4.7328       4.7328    1756394.2 
   64000    106.01186       4.7328       4.7328       4.7328    1757310.7 
   64100    106.01186       4.7328       4.7328       4.7328    1758282.9 
   64200    106.01186       4.7328       4.7328       4.7328    1758667.6 
   64300    106.01186       4.7328       4.7328       4.7328    1758137.4 
   64400    106.01186       4.7328       4.7328       4.7328    1759913.8 
   64500    106.01186       4.7328       4.7328       4.7328    1759132.5 
   64600    106.01186       4.7328       4.7328       4.7328    1758666.7 
   64700    106.01186       4.7328       4.7328       4.7328    1758283.4 
   64800    106.01186       4.7328       4.7328       4.7328    1759559.7 
   64900    106.01186       4.7328       4.7328       4.7328    1756658.5 
   65000    106.01186       4.7328       4.7328       4.7328      1755224 
   65100    106.01186       4.7328       4.7328       4.7328    1755011.5 
   65200    106.01186       4.7328       4.7328       4.7328    1754370.7 
   65300    106.01186       4.7328       4.7328       4.7328      1754468 
   65400    106.01186       4.7328       4.7328       4.7328    1753980.4 
   65500    106.01186       4.7328       4.7328       4.7328    1753753.2 
   65600    106.01186       4.7328       4.7328       4.7328    1754280.6 
   65700    106.01186       4.7328       4.7328       4.7328    1754998.7 
   65800    106.01186       4.7328       4.7328       4.7328    1756715.8 
   65900    106.01186       4.7328       4.7328       4.7328    1756543.2 
   66000    106.01186       4.7328       4.7328       4.7328      1757028 
   66100    106.01186       4.7328       4.7328       4.7328    1756355.4 
   66200    106.01186       4.7328       4.7328       4.7328      1755991 
   66300    106.01186       4.7328       4.7328       4.7328    1757458.2 
   66400    106.01186       4.7328       4.7328       4.7328    1756650.5 
   66500    106.01186       4.7328       4.7328       4.7328    1756375.7 
   66600    106.01186       4.7328       4.7328       4.7328    1755429.1 
   66700    106.01186       4.7328       4.7328       4.7328    1756537.8 
   66800    106.01186       4.7328       4.7328       4.7328    1758664.1 
   66900    106.01186       4.7328       4.7328       4.7328    1758595.4 
   67000    106.01186       4.7328       4.7328       4.7328    1758668.1 
   67100    106.01186       4.7328       4.7328       4.7328    1757827.1 
   67200    106.01186       4.7328       4.7328       4.7328    1758275.6 
   67300    106.01186       4.7328       4.7328       4.7328    1759320.2 
   67400    106.01186       4.7328       4.7328       4.7328    1759793.5 
   67500    106.01186       4.7328       4.7328       4.7328    1759018.7 
   67600    106.01186       4.7328       4.7328       4.7328    1758571.6 
   67700    106.01186       4.7328       4.7328       4.7328    1758841.2 
   67800    106.01186       4.7328       4.7328       4.7328    1757481.1 
   67900    106.01186       4.7328       4.7328       4.7328    1755914.8 
   68000    106.01186       4.7328       4.7328       4.7328    1756416.1 
   68100    106.01186       4.7328       4.7328       4.7328    1757123.3 
   68200    106.01186       4.7328       4.7328       4.7328    1758437.7 
   68300    106.01186       4.7328       4.7328       4.7328    1758365.8 
   68400    106.01186       4.7328       4.7328       4.7328    1758429.1 
   68500    106.01186       4.7328       4.7328       4.7328    1757946.8 
   68600    106.01186       4.7328       4.7328       4.7328    1757233.6 
   68700    106.01186       4.7328       4.7328       4.7328    1757503.2 
   68800    106.01186       4.7328       4.7328       4.7328    1758020.7 
   68900    106.01186       4.7328       4.7328       4.7328      1758749 
   69000    106.01186       4.7328       4.7328       4.7328    1757483.4 
   69100    106.01186       4.7328       4.7328       4.7328    1758028.1 
   69200    106.01186       4.7328       4.7328       4.7328    1756046.3 
   69300    106.01186       4.7328       4.7328       4.7328    1756802.2 
   69400    106.01186       4.7328       4.7328       4.7328    1757341.1 
   69500    106.01186       4.7328       4.7328       4.7328    1758106.9 
   69600    106.01186       4.7328       4.7328       4.7328    1757809.8 
   69700    106.01186       4.7328       4.7328       4.7328    1757412.8 
   69800    106.01186       4.7328       4.7328       4.7328    1756328.1 
   69900    106.01186       4.7328       4.7328       4.7328    1755493.2 
   70000    106.01186       4.7328       4.7328       4.7328    1754884.1 
   70100    106.01186       4.7328       4.7328       4.7328    1755832.6 
   70200    106.01186       4.7328       4.7328       4.7328    1758140.9 
   70300    106.01186       4.7328       4.7328       4.7328    1756987.1 
   70400    106.01186       4.7328       4.7328       4.7328    1756903.1 
   70500    106.01186       4.7328       4.7328       4.7328    1756108.4 
   70600    106.01186       4.7328       4.7328       4.7328    1756779.7 
   70700    106.01186       4.7328       4.7328       4.7328    1756308.1 
   70800    106.01186       4.7328       4.7328       4.7328    1755805.4 
   70900    106.01186       4.7328       4.7328       4.7328    1756846.8 
   71000    106.01186       4.7328       4.7328       4.7328    1757161.1 
   71100    106.01186       4.7328       4.7328       4.7328    1757555.1 
   71200    106.01186       4.7328       4.7328       4.7328    1758999.4 
   71300    106.01186       4.7328       4.7328       4.7328    1758983.4 
   71400    106.01186       4.7328       4.7328       4.7328    1759068.9 
   71500    106.01186       4.7328       4.7328       4.7328    1761611.6 
   71600    106.01186       4.7328       4.7328       4.7328    1760289.8 
   71700    106.01186       4.7328       4.7328       4.7328    1760494.5 
   71800    106.01186       4.7328       4.7328       4.7328    1760069.6 
   71900    106.01186       4.7328       4.7328       4.7328    1759727.9 
   72000    106.01186       4.7328       4.7328       4.7328    1758378.3 
   72100    106.01186       4.7328       4.7328       4.7328    1757939.9 
   72200    106.01186       4.7328       4.7328       4.7328    1757701.2 
   72300    106.01186       4.7328       4.7328       4.7328    1758233.9 
   72400    106.01186       4.7328       4.7328       4.7328    1758540.7 
   72500    106.01186       4.7328       4.7328       4.7328    1758940.9 
   72600    106.01186       4.7328       4.7328       4.7328    1758331.8 
   72700    106.01186       4.7328       4.7328       4.7328    1757395.3 
   72800    106.01186       4.7328       4.7328       4.7328    1756628.5 
   72900    106.01186       4.7328       4.7328       4.7328      1756365 
   73000    106.01186       4.7328       4.7328       4.7328    1756247.4 
   73100    106.01186       4.7328       4.7328       4.7328    1755909.1 
   73200    106.01186       4.7328       4.7328       4.7328    1757218.8 
   73300    106.01186       4.7328       4.7328       4.7328    1756931.5 
   73400    106.01186       4.7328       4.7328       4.7328    1756251.1 
   73500    106.01186       4.7328       4.7328       4.7328    1756516.1 
   73600    106.01186       4.7328       4.7328       4.7328    1757574.4 
   73700    106.01186       4.7328       4.7328       4.7328    1755837.9 
   73800    106.01186       4.7328       4.7328       4.7328    1756146.7 
   73900    106.01186       4.7328       4.7328       4.7328    1758035.3 
   74000    106.01186       4.7328       4.7328       4.7328    1758608.1 
   74100    106.01186       4.7328       4.7328       4.7328    1759455.5 
   74200    106.01186       4.7328       4.7328       4.7328    1759697.1 
   74300    106.01186       4.7328       4.7328       4.7328    1762649.3 
   74400    106.01186       4.7328       4.7328       4.7328    1763349.4 
   74500    106.01186       4.7328       4.7328       4.7328    1762862.6 
   74600    106.01186       4.7328       4.7328       4.7328    1762583.3 
   74700    106.01186       4.7328       4.7328       4.7328    1762426.7 
   74800    106.01186       4.7328       4.7328       4.7328    1761580.6 
   74900    106.01186       4.7328       4.7328       4.7328      1761144 
   75000    106.01186       4.7328       4.7328       4.7328    1759084.5 
   75100    106.01186       4.7328       4.7328       4.7328    1760088.9 
   75200    106.01186       4.7328       4.7328       4.7328    1758445.3 
   75300    106.01186       4.7328       4.7328       4.7328    1756615.6 
   75400    106.01186       4.7328       4.7328       4.7328    1757621.6 
   75500    106.01186       4.7328       4.7328       4.7328    1758825.3 
   75600    106.01186       4.7328       4.7328       4.7328    1759074.1 
   75700    106.01186       4.7328       4.7328       4.7328    1758139.5 
   75800    106.01186       4.7328       4.7328       4.7328    1758273.1 
   75900    106.01186       4.7328       4.7328       4.7328    1758708.1 
   76000    106.01186       4.7328       4.7328       4.7328    1756314.4 
   76100    106.01186       4.7328       4.7328       4.7328    1757103.6 
   76200    106.01186       4.7328       4.7328       4.7328      1754961 
   76300    106.01186       4.7328       4.7328       4.7328    1755185.1 
   76400    106.01186       4.7328       4.7328       4.7328    1754701.6 
   76500    106.01186       4.7328       4.7328       4.7328    1755317.5 
   76600    106.01186       4.7328       4.7328       4.7328    1756639.7 
   76700    106.01186       4.7328       4.7328       4.7328      1757763 
   76800    106.01186       4.7328       4.7328       4.7328    1759367.2 
   76900    106.01186       4.7328       4.7328       4.7328      1759939 
   77000    106.01186       4.7328       4.7328       4.7328    1760106.2 
   77100    106.01186       4.7328       4.7328       4.7328    1760136.3 
   77200    106.01186       4.7328       4.7328       4.7328    1760759.5 
   77300    106.01186       4.7328       4.7328       4.7328    1762362.3 
   77400    106.01186       4.7328       4.7328       4.7328    1764095.7 
   77500    106.01186       4.7328       4.7328       4.7328    1763307.6 
   77600    106.01186       4.7328       4.7328       4.7328    1763873.9 
   77700    106.01186       4.7328       4.7328       4.7328    1760583.5 
   77800    106.01186       4.7328       4.7328       4.7328    1759615.2 
   77900    106.01186       4.7328       4.7328       4.7328    1760460.2 
   78000    106.01186       4.7328       4.7328       4.7328    1761621.8 
   78100    106.01186       4.7328       4.7328       4.7328    1759181.3 
   78200    106.01186       4.7328       4.7328       4.7328    1758739.6 
   78300    106.01186       4.7328       4.7328       4.7328    1759414.2 
   78400    106.01186       4.7328       4.7328       4.7328    1759258.4 
   78500    106.01186       4.7328       4.7328       4.7328    1758830.6 
   78600    106.01186       4.7328       4.7328       4.7328    1759734.2 
   78700    106.01186       4.7328       4.7328       4.7328    1760621.2 
   78800    106.01186       4.7328       4.7328       4.7328    1760652.6 
   78900    106.01186       4.7328       4.7328       4.7328    1758475.2 
   79000    106.01186       4.7328       4.7328       4.7328    1758487.4 
   79100    106.01186       4.7328       4.7328       4.7328    1756554.4 
   79200    106.01186       4.7328       4.7328       4.7328    1756153.2 
   79300    106.01186       4.7328       4.7328       4.7328    1756726.3 
   79400    106.01186       4.7328       4.7328       4.7328    1759315.9 
   79500    106.01186       4.7328       4.7328       4.7328    1761017.7 
   79600    106.01186       4.7328       4.7328       4.7328    1760442.1 
   79700    106.01186       4.7328       4.7328       4.7328    1761116.7 
   79800    106.01186       4.7328       4.7328       4.7328    1759816.5 
   79900    106.01186       4.7328       4.7328       4.7328    1759650.7 
   80000    106.01186       4.7328       4.7328       4.7328    1759294.6 
   80100    106.01186       4.7328       4.7328       4.7328    1761222.5 
   80200    106.01186       4.7328       4.7328       4.7328    1761851.8 
   80300    106.01186       4.7328       4.7328       4.7328    1759965.6 
   80400    106.01186       4.7328       4.7328       4.7328    1758846.9 
   80500    106.01186       4.7328       4.7328       4.7328    1758135.2 
   80600    106.01186       4.7328       4.7328       4.7328    1758482.2 
   80700    106.01186       4.7328       4.7328       4.7328    1760158.2 
   80800    106.01186       4.7328       4.7328       4.7328    1761078.3 
   80900    106.01186       4.7328       4.7328       4.7328    1761045.6 
   81000    106.01186       4.7328       4.7328       4.7328    1760687.1 
   81100    106.01186       4.7328       4.7328       4.7328    1761723.9 
   81200    106.01186       4.7328       4.7328       4.7328    1759875.4 
   81300    106.01186       4.7328       4.7328       4.7328    1759605.7 
   81400    106.01186       4.7328       4.7328       4.7328    1758958.1 
   81500    106.01186       4.7328       4.7328       4.7328    1758809.3 
   81600    106.01186       4.7328       4.7328       4.7328    1760431.4 
   81700    106.01186       4.7328       4.7328       4.7328    1761430.1 
   81800    106.01186       4.7328       4.7328       4.7328      1761009 
   81900    106.01186       4.7328       4.7328       4.7328      1761471 
   82000    106.01186       4.7328       4.7328       4.7328    1761333.4 
   82100    106.01186       4.7328       4.7328       4.7328    1762240.8 
   82200    106.01186       4.7328       4.7328       4.7328    1761702.7 
   82300    106.01186       4.7328       4.7328       4.7328    1761824.3 
   82400    106.01186       4.7328       4.7328       4.7328    1760347.7 
   82500    106.01186       4.7328       4.7328       4.7328    1759939.2 
   82600    106.01186       4.7328       4.7328       4.7328    1761073.6 
   82700    106.01186       4.7328       4.7328       4.7328      1763352 
   82800    106.01186       4.7328       4.7328       4.7328    1765563.7 
   82900    106.01186       4.7328       4.7328       4.7328      1763430 
   83000    106.01186       4.7328       4.7328       4.7328    1760719.4 
   83100    106.01186       4.7328       4.7328       4.7328    1761051.6 
   83200    106.01186       4.7328       4.7328       4.7328    1760989.3 
   83300    106.01186       4.7328       4.7328       4.7328    1761068.5 
   83400    106.01186       4.7328       4.7328       4.7328    1761891.4 
   83500    106.01186       4.7328       4.7328       4.7328    1762116.3 
   83600    106.01186       4.7328       4.7328       4.7328    1760451.5 
   83700    106.01186       4.7328       4.7328       4.7328    1760031.3 
   83800    106.01186       4.7328       4.7328       4.7328    1761648.5 
   83900    106.01186       4.7328       4.7328       4.7328    1760008.5 
   84000    106.01186       4.7328       4.7328       4.7328    1759323.2 
   84100    106.01186       4.7328       4.7328       4.7328    1759718.2 
   84200    106.01186       4.7328       4.7328       4.7328    1759688.9 
   84300    106.01186       4.7328       4.7328       4.7328    1761617.6 
   84400    106.01186       4.7328       4.7328       4.7328    1761808.6 
   84500    106.01186       4.7328       4.7328       4.7328    1760550.3 
   84600    106.01186       4.7328       4.7328       4.7328    1759676.2 
   84700    106.01186       4.7328       4.7328       4.7328    1761394.7 
   84800    106.01186       4.7328       4.7328       4.7328    1762179.1 
   84900    106.01186       4.7328       4.7328       4.7328    1763289.3 
   85000    106.01186       4.7328       4.7328       4.7328    1765015.2 
   85100    106.01186       4.7328       4.7328       4.7328    1763442.2 
   85200    106.01186       4.7328       4.7328       4.7328    1763082.4 
   85300    106.01186       4.7328       4.7328       4.7328    1764941.6 
   85400    106.01186       4.7328       4.7328       4.7328    1767622.8 
   85500    106.01186       4.7328       4.7328       4.7328    1769992.5 
   85600    106.01186       4.7328       4.7328       4.7328    1769908.3 
   85700    106.01186       4.7328       4.7328       4.7328    1768183.3 
   85800    106.01186       4.7328       4.7328       4.7328    1765907.3 
   85900    106.01186       4.7328       4.7328       4.7328    1765558.7 
   86000    106.01186       4.7328       4.7328       4.7328    1765431.5 
   86100    106.01186       4.7328       4.7328       4.7328    1763400.4 
   86200    106.01186       4.7328       4.7328       4.7328    1762782.5 
   86300    106.01186       4.7328       4.7328       4.7328    1762400.6 
   86400    106.01186       4.7328       4.7328       4.7328    1761266.6 
   86500    106.01186       4.7328       4.7328       4.7328    1759405.9 
   86600    106.01186       4.7328       4.7328       4.7328      1759635 
   86700    106.01186       4.7328       4.7328       4.7328    1760780.9 
   86800    106.01186       4.7328       4.7328       4.7328    1760503.9 
   86900    106.01186       4.7328       4.7328       4.7328    1762633.6 
   87000    106.01186       4.7328       4.7328       4.7328    1762223.3 
   87100    106.01186       4.7328       4.7328       4.7328    1762653.4 
   87200    106.01186       4.7328       4.7328       4.7328    1761017.6 
   87300    106.01186       4.7328       4.7328       4.7328    1759829.7 
   87400    106.01186       4.7328       4.7328       4.7328    1760873.4 
   87500    106.01186       4.7328       4.7328       4.7328    1759439.6 
   87600    106.01186       4.7328       4.7328       4.7328    1757076.3 
   87700    106.01186       4.7328       4.7328       4.7328      1755266 
   87800    106.01186       4.7328       4.7328       4.7328    1754472.8 
   87900    106.01186       4.7328       4.7328       4.7328      1755050 
   88000    106.01186       4.7328       4.7328       4.7328    1758443.4 
   88100    106.01186       4.7328       4.7328       4.7328    1757376.7 
   88200    106.01186       4.7328       4.7328       4.7328      1757442 
   88300    106.01186       4.7328       4.7328       4.7328    1757595.2 
   88400    106.01186       4.7328       4.7328       4.7328    1758176.8 
   88500    106.01186       4.7328       4.7328       4.7328    1759862.4 
   88600    106.01186       4.7328       4.7328       4.7328      1760078 
   88700    106.01186       4.7328       4.7328       4.7328    1761501.2 
   88800    106.01186       4.7328       4.7328       4.7328    1759905.5 
   88900    106.01186       4.7328       4.7328       4.7328    1761266.4 
   89000    106.01186       4.7328       4.7328       4.7328    1756030.8 
   89100    106.01186       4.7328       4.7328       4.7328    1749044.7 
   89200    106.01186       4.7328       4.7328       4.7328    1739244.1 
   89300    106.01186       4.7328       4.7328       4.7328    1734283.4 
   89400    106.01186       4.7328       4.7328       4.7328    1736669.5 
   89500    106.01186       4.7328       4.7328       4.7328    1742007.4 
   89600    106.01186       4.7328       4.7328       4.7328    1748465.8 
   89700    106.01186       4.7328       4.7328       4.7328    1750457.2 
   89800    106.01186       4.7328       4.7328       4.7328    1753822.8 
   89900    106.01186       4.7328       4.7328       4.7328    1759814.4 
   90000    106.01186       4.7328       4.7328       4.7328    1763286.4 
   90100    106.01186       4.7328       4.7328       4.7328    1753444.6 
   90200    106.01186       4.7328       4.7328       4.7328    1734198.6 
   90300    106.01186       4.7328       4.7328       4.7328    1730996.6 
   90400    106.01186       4.7328       4.7328       4.7328    1739402.8 
   90500    106.01186       4.7328       4.7328       4.7328    1750050.1 
   90600    106.01186       4.7328       4.7328       4.7328    1752045.8 
   90700    106.01186       4.7328       4.7328       4.7328    1743885.5 
   90800    106.01186       4.7328       4.7328       4.7328    1744594.8 
   90900    106.01186       4.7328       4.7328       4.7328    1749212.6 
   91000    106.01186       4.7328       4.7328       4.7328    1750342.9 
   91100    106.01186       4.7328       4.7328       4.7328    1734248.5 
   91200    106.01186       4.7328       4.7328       4.7328    1727483.9 
   91300    106.01186       4.7328       4.7328       4.7328    1743482.7 
   91400    106.01186       4.7328       4.7328       4.7328    1759186.4 
   91500    106.01186       4.7328       4.7328       4.7328    1756087.9 
   91600    106.01186       4.7328       4.7328       4.7328    1753620.1 
   91700    106.01186       4.7328       4.7328       4.7328    1763590.6 
   91800    106.01186       4.7328       4.7328       4.7328    1769667.3 
   91900    106.01186       4.7328       4.7328       4.7328    1750813.1 
[...]
  474800    106.01186       4.7328       4.7328       4.7328    1705746.3 
  474900    106.01186       4.7328       4.7328       4.7328    1709388.7 
  475000    106.01186       4.7328       4.7328       4.7328    1705245.7 
  475100    106.01186       4.7328       4.7328       4.7328    1702448.4 
  475200    106.01186       4.7328       4.7328       4.7328      1710118 
  475300    106.01186       4.7328       4.7328       4.7328    1713135.8 
  475400    106.01186       4.7328       4.7328       4.7328    1707622.7 
  475500    106.01186       4.7328       4.7328       4.7328      1709836 
  475600    106.01186       4.7328       4.7328       4.7328    1714456.3 
  475700    106.01186       4.7328       4.7328       4.7328    1709520.2 
  475800    106.01186       4.7328       4.7328       4.7328    1715763.9 
  475900    106.01186       4.7328       4.7328       4.7328    1713867.1 
  476000    106.01186       4.7328       4.7328       4.7328    1715848.3 
  476100    106.01186       4.7328       4.7328       4.7328    1727200.2 
  476200    106.01186       4.7328       4.7328       4.7328    1743048.6 
  476300    106.01186       4.7328       4.7328       4.7328    1737938.6 
  476400    106.01186       4.7328       4.7328       4.7328    1730459.3 
  476500    106.01186       4.7328       4.7328       4.7328    1734148.9 
  476600    106.01186       4.7328       4.7328       4.7328    1729496.2 
  476700    106.01186       4.7328       4.7328       4.7328    1720825.3 
  476800    106.01186       4.7328       4.7328       4.7328    1719086.5 
  476900    106.01186       4.7328       4.7328       4.7328    1727111.5 
  477000    106.01186       4.7328       4.7328       4.7328    1730756.9 
  477100    106.01186       4.7328       4.7328       4.7328    1726209.6 
  477200    106.01186       4.7328       4.7328       4.7328    1724044.2 
  477300    106.01186       4.7328       4.7328       4.7328    1723102.1 
  477400    106.01186       4.7328       4.7328       4.7328    1727493.1 
  477500    106.01186       4.7328       4.7328       4.7328    1727607.3 
  477600    106.01186       4.7328       4.7328       4.7328    1721597.5 
  477700    106.01186       4.7328       4.7328       4.7328    1723009.2 
  477800    106.01186       4.7328       4.7328       4.7328    1737170.9 
  477900    106.01186       4.7328       4.7328       4.7328    1733940.7 
  478000    106.01186       4.7328       4.7328       4.7328    1724890.7 
  478100    106.01186       4.7328       4.7328       4.7328    1732494.8 
  478200    106.01186       4.7328       4.7328       4.7328    1724118.9 
  478300    106.01186       4.7328       4.7328       4.7328    1710808.2 
  478400    106.01186       4.7328       4.7328       4.7328    1714674.2 
  478500    106.01186       4.7328       4.7328       4.7328    1725809.7 
  478600    106.01186       4.7328       4.7328       4.7328    1722236.2 
  478700    106.01186       4.7328       4.7328       4.7328    1717082.2 
  478800    106.01186       4.7328       4.7328       4.7328    1721968.2 
  478900    106.01186       4.7328       4.7328       4.7328    1721330.6 
  479000    106.01186       4.7328       4.7328       4.7328    1717076.6 
  479100    106.01186       4.7328       4.7328       4.7328    1712636.8 
  479200    106.01186       4.7328       4.7328       4.7328    1707987.9 
  479300    106.01186       4.7328       4.7328       4.7328    1709546.8 
  479400    106.01186       4.7328       4.7328       4.7328    1709303.6 
  479500    106.01186       4.7328       4.7328       4.7328    1708407.3 
  479600    106.01186       4.7328       4.7328       4.7328    1701027.5 
  479700    106.01186       4.7328       4.7328       4.7328    1707379.9 
  479800    106.01186       4.7328       4.7328       4.7328    1704441.5 
  479900    106.01186       4.7328       4.7328       4.7328    1700524.5 
  480000    106.01186       4.7328       4.7328       4.7328    1707007.5 
  480100    106.01186       4.7328       4.7328       4.7328    1709186.4 
  480200    106.01186       4.7328       4.7328       4.7328    1716772.3 
  480300    106.01186       4.7328       4.7328       4.7328    1717657.8 
  480400    106.01186       4.7328       4.7328       4.7328    1726920.3 
  480500    106.01186       4.7328       4.7328       4.7328    1714535.8 
  480600    106.01186       4.7328       4.7328       4.7328    1710424.2 
  480700    106.01186       4.7328       4.7328       4.7328    1724519.2 
  480800    106.01186       4.7328       4.7328       4.7328    1711844.4 
  480900    106.01186       4.7328       4.7328       4.7328    1717873.7 
  481000    106.01186       4.7328       4.7328       4.7328      1729987 
  481100    106.01186       4.7328       4.7328       4.7328    1731811.2 
  481200    106.01186       4.7328       4.7328       4.7328    1736574.5 
  481300    106.01186       4.7328       4.7328       4.7328    1731854.5 
  481400    106.01186       4.7328       4.7328       4.7328    1725102.2 
  481500    106.01186       4.7328       4.7328       4.7328    1717251.4 
  481600    106.01186       4.7328       4.7328       4.7328    1719820.6 
  481700    106.01186       4.7328       4.7328       4.7328    1720544.3 
  481800    106.01186       4.7328       4.7328       4.7328    1715401.7 
  481900    106.01186       4.7328       4.7328       4.7328    1722284.7 
  482000    106.01186       4.7328       4.7328       4.7328    1727719.1 
  482100    106.01186       4.7328       4.7328       4.7328    1721067.8 
  482200    106.01186       4.7328       4.7328       4.7328    1718895.4 
  482300    106.01186       4.7328       4.7328       4.7328    1719173.5 
  482400    106.01186       4.7328       4.7328       4.7328    1722930.4 
  482500    106.01186       4.7328       4.7328       4.7328    1732657.5 
  482600    106.01186       4.7328       4.7328       4.7328      1739466 
  482700    106.01186       4.7328       4.7328       4.7328    1728348.6 
  482800    106.01186       4.7328       4.7328       4.7328    1718694.6 
  482900    106.01186       4.7328       4.7328       4.7328    1727307.5 
  483000    106.01186       4.7328       4.7328       4.7328    1722546.2 
  483100    106.01186       4.7328       4.7328       4.7328    1712718.6 
  483200    106.01186       4.7328       4.7328       4.7328    1719098.7 
  483300    106.01186       4.7328       4.7328       4.7328    1727916.6 
  483400    106.01186       4.7328       4.7328       4.7328    1725944.3 
  483500    106.01186       4.7328       4.7328       4.7328    1725796.8 
  483600    106.01186       4.7328       4.7328       4.7328    1723323.2 
  483700    106.01186       4.7328       4.7328       4.7328    1725138.6 
  483800    106.01186       4.7328       4.7328       4.7328    1731426.8 
  483900    106.01186       4.7328       4.7328       4.7328    1729055.2 
  484000    106.01186       4.7328       4.7328       4.7328      1712102 
  484100    106.01186       4.7328       4.7328       4.7328    1710134.6 
  484200    106.01186       4.7328       4.7328       4.7328    1719344.2 
  484300    106.01186       4.7328       4.7328       4.7328      1712344 
  484400    106.01186       4.7328       4.7328       4.7328    1708296.6 
  484500    106.01186       4.7328       4.7328       4.7328    1710751.6 
  484600    106.01186       4.7328       4.7328       4.7328    1705568.1 
  484700    106.01186       4.7328       4.7328       4.7328    1709109.7 
  484800    106.01186       4.7328       4.7328       4.7328    1710131.9 
  484900    106.01186       4.7328       4.7328       4.7328    1699088.2 
  485000    106.01186       4.7328       4.7328       4.7328    1693902.3 
  485100    106.01186       4.7328       4.7328       4.7328    1709376.8 
  485200    106.01186       4.7328       4.7328       4.7328    1712470.3 
  485300    106.01186       4.7328       4.7328       4.7328      1707250 
  485400    106.01186       4.7328       4.7328       4.7328    1711715.4 
  485500    106.01186       4.7328       4.7328       4.7328    1710064.4 
  485600    106.01186       4.7328       4.7328       4.7328    1707356.6 
  485700    106.01186       4.7328       4.7328       4.7328    1713007.8 
  485800    106.01186       4.7328       4.7328       4.7328    1708079.9 
  485900    106.01186       4.7328       4.7328       4.7328    1713226.2 
  486000    106.01186       4.7328       4.7328       4.7328    1730103.4 
  486100    106.01186       4.7328       4.7328       4.7328    1735140.7 
  486200    106.01186       4.7328       4.7328       4.7328    1720070.4 
  486300    106.01186       4.7328       4.7328       4.7328    1715505.9 
  486400    106.01186       4.7328       4.7328       4.7328    1731922.8 
  486500    106.01186       4.7328       4.7328       4.7328    1726203.9 
  486600    106.01186       4.7328       4.7328       4.7328    1720249.2 
  486700    106.01186       4.7328       4.7328       4.7328      1725169 
  486800    106.01186       4.7328       4.7328       4.7328    1720724.5 
  486900    106.01186       4.7328       4.7328       4.7328    1723274.8 
  487000    106.01186       4.7328       4.7328       4.7328    1727258.1 
  487100    106.01186       4.7328       4.7328       4.7328    1730259.6 
  487200    106.01186       4.7328       4.7328       4.7328    1727780.5 
  487300    106.01186       4.7328       4.7328       4.7328      1722602 
  487400    106.01186       4.7328       4.7328       4.7328    1730123.4 
  487500    106.01186       4.7328       4.7328       4.7328    1722977.3 
  487600    106.01186       4.7328       4.7328       4.7328    1726317.9 
  487700    106.01186       4.7328       4.7328       4.7328    1732475.1 
  487800    106.01186       4.7328       4.7328       4.7328    1722645.9 
  487900    106.01186       4.7328       4.7328       4.7328    1729450.2 
  488000    106.01186       4.7328       4.7328       4.7328    1722723.4 
  488100    106.01186       4.7328       4.7328       4.7328    1713422.5 
  488200    106.01186       4.7328       4.7328       4.7328    1723250.6 
  488300    106.01186       4.7328       4.7328       4.7328    1727329.2 
  488400    106.01186       4.7328       4.7328       4.7328    1722279.3 
  488500    106.01186       4.7328       4.7328       4.7328    1717258.7 
  488600    106.01186       4.7328       4.7328       4.7328    1726782.5 
  488700    106.01186       4.7328       4.7328       4.7328    1735659.5 
  488800    106.01186       4.7328       4.7328       4.7328    1725465.6 
  488900    106.01186       4.7328       4.7328       4.7328    1722654.3 
  489000    106.01186       4.7328       4.7328       4.7328    1715662.4 
  489100    106.01186       4.7328       4.7328       4.7328    1712220.4 
  489200    106.01186       4.7328       4.7328       4.7328    1710636.9 
  489300    106.01186       4.7328       4.7328       4.7328    1700123.5 
  489400    106.01186       4.7328       4.7328       4.7328    1697734.3 
  489500    106.01186       4.7328       4.7328       4.7328    1707240.2 
  489600    106.01186       4.7328       4.7328       4.7328    1709217.3 
  489700    106.01186       4.7328       4.7328       4.7328    1701492.6 
  489800    106.01186       4.7328       4.7328       4.7328      1695120 
  489900    106.01186       4.7328       4.7328       4.7328    1708036.8 
  490000    106.01186       4.7328       4.7328       4.7328    1712893.9 
  490100    106.01186       4.7328       4.7328       4.7328    1707393.4 
  490200    106.01186       4.7328       4.7328       4.7328    1709854.8 
  490300    106.01186       4.7328       4.7328       4.7328      1704013 
  490400    106.01186       4.7328       4.7328       4.7328    1712069.5 
  490500    106.01186       4.7328       4.7328       4.7328    1711402.5 
  490600    106.01186       4.7328       4.7328       4.7328    1711496.7 
  490700    106.01186       4.7328       4.7328       4.7328    1716632.6 
  490800    106.01186       4.7328       4.7328       4.7328    1710592.5 
  490900    106.01186       4.7328       4.7328       4.7328    1724984.7 
  491000    106.01186       4.7328       4.7328       4.7328    1728035.2 
  491100    106.01186       4.7328       4.7328       4.7328    1730150.5 
  491200    106.01186       4.7328       4.7328       4.7328    1726940.6 
  491300    106.01186       4.7328       4.7328       4.7328      1718611 
  491400    106.01186       4.7328       4.7328       4.7328      1724740 
  491500    106.01186       4.7328       4.7328       4.7328    1728513.6 
  491600    106.01186       4.7328       4.7328       4.7328    1724707.3 
  491700    106.01186       4.7328       4.7328       4.7328      1724375 
  491800    106.01186       4.7328       4.7328       4.7328    1732964.7 
  491900    106.01186       4.7328       4.7328       4.7328    1734158.5 
  492000    106.01186       4.7328       4.7328       4.7328      1720911 
  492100    106.01186       4.7328       4.7328       4.7328    1731270.9 
  492200    106.01186       4.7328       4.7328       4.7328    1737040.4 
  492300    106.01186       4.7328       4.7328       4.7328    1723227.7 
  492400    106.01186       4.7328       4.7328       4.7328    1721744.2 
  492500    106.01186       4.7328       4.7328       4.7328    1721269.6 
  492600    106.01186       4.7328       4.7328       4.7328    1721573.6 
  492700    106.01186       4.7328       4.7328       4.7328    1722928.1 
  492800    106.01186       4.7328       4.7328       4.7328    1726273.9 
  492900    106.01186       4.7328       4.7328       4.7328    1721291.3 
  493000    106.01186       4.7328       4.7328       4.7328    1724394.1 
  493100    106.01186       4.7328       4.7328       4.7328    1720945.2 
  493200    106.01186       4.7328       4.7328       4.7328    1724911.1 
  493300    106.01186       4.7328       4.7328       4.7328    1720204.3 
  493400    106.01186       4.7328       4.7328       4.7328    1721009.8 
  493500    106.01186       4.7328       4.7328       4.7328    1731828.8 
  493600    106.01186       4.7328       4.7328       4.7328    1723652.5 
  493700    106.01186       4.7328       4.7328       4.7328    1735210.4 
  493800    106.01186       4.7328       4.7328       4.7328    1734936.7 
  493900    106.01186       4.7328       4.7328       4.7328    1722350.6 
  494000    106.01186       4.7328       4.7328       4.7328    1721328.7 
  494100    106.01186       4.7328       4.7328       4.7328    1720077.8 
  494200    106.01186       4.7328       4.7328       4.7328    1723674.6 
  494300    106.01186       4.7328       4.7328       4.7328    1718060.3 
  494400    106.01186       4.7328       4.7328       4.7328      1732340 
  494500    106.01186       4.7328       4.7328       4.7328    1741377.4 
  494600    106.01186       4.7328       4.7328       4.7328    1732087.1 
  494700    106.01186       4.7328       4.7328       4.7328    1724699.2 
  494800    106.01186       4.7328       4.7328       4.7328    1714408.4 
  494900    106.01186       4.7328       4.7328       4.7328    1716690.2 
  495000    106.01186       4.7328       4.7328       4.7328    1704236.1 
  495100    106.01186       4.7328       4.7328       4.7328    1702698.4 
  495200    106.01186       4.7328       4.7328       4.7328      1715723 
  495300    106.01186       4.7328       4.7328       4.7328    1729349.1 
  495400    106.01186       4.7328       4.7328       4.7328    1726511.1 
  495500    106.01186       4.7328       4.7328       4.7328    1707440.6 
  495600    106.01186       4.7328       4.7328       4.7328    1703385.8 
  495700    106.01186       4.7328       4.7328       4.7328    1704606.5 
  495800    106.01186       4.7328       4.7328       4.7328    1707422.8 
  495900    106.01186       4.7328       4.7328       4.7328    1706889.7 
  496000    106.01186       4.7328       4.7328       4.7328    1712090.8 
  496100    106.01186       4.7328       4.7328       4.7328    1724558.6 
  496200    106.01186       4.7328       4.7328       4.7328    1722872.6 
  496300    106.01186       4.7328       4.7328       4.7328    1719471.9 
  496400    106.01186       4.7328       4.7328       4.7328    1704028.7 
  496500    106.01186       4.7328       4.7328       4.7328    1698729.6 
  496600    106.01186       4.7328       4.7328       4.7328    1712118.8 
  496700    106.01186       4.7328       4.7328       4.7328      1720652 
  496800    106.01186       4.7328       4.7328       4.7328    1735240.5 
  496900    106.01186       4.7328       4.7328       4.7328    1733099.9 
  497000    106.01186       4.7328       4.7328       4.7328    1727455.2 
  497100    106.01186       4.7328       4.7328       4.7328    1722299.4 
  497200    106.01186       4.7328       4.7328       4.7328    1719641.1 
  497300    106.01186       4.7328       4.7328       4.7328    1713258.8 
  497400    106.01186       4.7328       4.7328       4.7328    1716556.4 
  497500    106.01186       4.7328       4.7328       4.7328    1733646.1 
  497600    106.01186       4.7328       4.7328       4.7328    1733331.5 
  497700    106.01186       4.7328       4.7328       4.7328    1733783.6 
  497800    106.01186       4.7328       4.7328       4.7328    1722898.7 
  497900    106.01186       4.7328       4.7328       4.7328    1728941.2 
  498000    106.01186       4.7328       4.7328       4.7328      1734589 
  498100    106.01186       4.7328       4.7328       4.7328    1729252.6 
  498200    106.01186       4.7328       4.7328       4.7328    1739115.6 
  498300    106.01186       4.7328       4.7328       4.7328    1729843.5 
  498400    106.01186       4.7328       4.7328       4.7328    1730392.6 
  498500    106.01186       4.7328       4.7328       4.7328    1740537.3 
  498600    106.01186       4.7328       4.7328       4.7328    1736354.1 
  498700    106.01186       4.7328       4.7328       4.7328    1728046.9 
  498800    106.01186       4.7328       4.7328       4.7328    1733007.2 
  498900    106.01186       4.7328       4.7328       4.7328    1746784.1 
  499000    106.01186       4.7328       4.7328       4.7328      1731778 
  499100    106.01186       4.7328       4.7328       4.7328    1722699.5 
  499200    106.01186       4.7328       4.7328       4.7328    1724625.1 
  499300    106.01186       4.7328       4.7328       4.7328    1738690.9 
  499400    106.01186       4.7328       4.7328       4.7328    1743508.7 
  499500    106.01186       4.7328       4.7328       4.7328    1725381.1 
  499600    106.01186       4.7328       4.7328       4.7328    1737618.4 
  499700    106.01186       4.7328       4.7328       4.7328    1736175.5 
  499800    106.01186       4.7328       4.7328       4.7328    1722846.3 
  499900    106.01186       4.7328       4.7328       4.7328    1718096.9 
  500000    106.01186       4.7328       4.7328       4.7328    1715177.9 
Loop time of 24.2982 on 1 procs for 500000 steps with 14 atoms

Performance: 177.791 ns/day, 0.135 hours/ns, 20577.679 timesteps/s
100.0% CPU use with 1 MPI tasks x 1 OpenMP threads

MPI task timing breakdown:
Section |  min time  |  avg time  |  max time  |%varavg| %total
---------------------------------------------------------------
Pair    | 22.097     | 22.097     | 22.097     |   0.0 | 90.94
Neigh   | 0.33433    | 0.33433    | 0.33433    |   0.0 |  1.38
Comm    | 1.2124     | 1.2124     | 1.2124     |   0.0 |  4.99
Output  | 0.028969   | 0.028969   | 0.028969   |   0.0 |  0.12
Modify  | 0.34776    | 0.34776    | 0.34776    |   0.0 |  1.43
Other   |            | 0.2776     |            |       |  1.14

Nlocal:    14 ave 14 max 14 min
Histogram: 1 0 0 0 0 0 0 0 0 0
Nghost:    690 ave 690 max 690 min
Histogram: 1 0 0 0 0 0 0 0 0 0
Neighs:    1014 ave 1014 max 1014 min
Histogram: 1 0 0 0 0 0 0 0 0 0

Total # of neighbors = 1014
Ave neighs/atom = 72.4286
Neighbor list builds = 17193
Dangerous builds = 0
